------------------------------------------------------------
          Invoking FHI-aims ...

          When using FHI-aims, please cite the following reference:

            Volker Blum, Ralf Gehrke, Felix Hanke, Paula Havu,
            Ville Havu, Xinguo Ren, Karsten Reuter, and Matthias Scheffler,
            'Ab Initio Molecular Simulations with Numeric Atom-Centered Orbitals',
            Computer Physics Communications 180, 2175-2196 (2009)

          In addition, many other developments in FHI-aims are likely important for
          your particular application. If so, please cite them. A partial list of references
          is written at the end of this file. Thank you for giving credit to the authors
          of these developments.

          For general information about FHI-aims please find us at

            https://fhi-aims.org

          Online tutorials can be found at

            https://fhi-aims-club.gitlab.io/tutorials/tutorials-overview/

          For any questions about FHI-aims, please visit our slack channel at

            https://fhi-aims.slack.com

          and our main development and support site at

            https://aims-git.rz-berlin.mpg.de .

          The latter site, in particular, has a wiki to collect information, as well
          as an issue tracker to log discussions, suggest improvements, and report issues
          or bugs. https://aims-git.rz-berlin.mpg.de is also the main development site
          of the project and all new and updated code versions can be obtained there.
          Please send an email to aims-coordinators@fhi-berlin.mpg.de and we will add
          you to these sites. They are for you and everyone is welcome there.

------------------------------------------------------------



  Date     :  20250519, Time     :  164533.034
  Time zero on CPU 1             :   0.476830000000000E-01  s.
  Internal wall clock time zero  :           516905133.034  s.

  FHI-aims created a unique identifier for this run for later identification
  aims_uuid : 995197AA-F6AF-47AD-AA1E-9973AADC6B10

  Build configuration of the current instance of FHI-aims
  -------------------------------------------------------
  FHI-aims version      : 250507
  Commit number         : 031dacc48
  CMake host system     : Darwin-23.4.0
  CMake version         : 4.0.2
  Fortran compiler      : /opt/homebrew/Cellar/mpich/4.2.3/bin/mpifort (GNU) version 14.2.0
  Fortran compiler flags: -O3 -fallow-argument-mismatch -ffree-line-length-none -Wl,-ld_classic -Wl,-lstdc++ -O2 -g
  C compiler            : /opt/homebrew/Cellar/mpich/4.2.3/bin/mpicc (GNU) version 14.2.0
  C compiler flags      : -cc=gcc-14 -O3 -Wl,-ld_classic -O2 -g -DNDEBUG
  C++ compiler          : /opt/homebrew/Cellar/mpich/4.2.3/bin/mpicxx (GNU) version 14.2.0
  C++ compiler flags    : -cxx=g++-14 -O3 -Wl,-ld_classic -O2 -g -DNDEBUG
  HIP compiler          :
  HIP compiler flags    :
  HIP GPU arch          :
  Using MPI
  Using ScaLAPACK
  Using LibXC
  Using i-PI
  Using RLSY
  Using GREENX
  Linking against: /opt/packages/scalapack/2.2.0/gcc-14.2.0_1-mpich-4.2.3-openblas/libscalapack.a
                   /opt/homebrew/Cellar/openblas/0.3.28/lib/libopenblas.dylib

  Using        1 parallel tasks.
  Task        0 on host taiyi reporting.

  Obtaining array dimensions for all initial allocations:
  
  -----------------------------------------------------------------------
  Parsing control.in (first pass over file, find array dimensions only).
  The contents of control.in will be repeated verbatim below
  unless switched off by setting 'verbatim_writeout .false.' .
  in the first line of control.in .
  -----------------------------------------------------------------------
  
  #%FHI-aims
  # General setting
  xc               pbe
  relativistic     atomic_zora scalar
  occupation_type  gaussian 0.0001
  basis_threshold  0.e-5
  qpe_calc         gw_expt
  # freq_grid_type minimax
  spin collinear
  freq_grid_type mod-GL
  frequency_points 16
  n_anacon_par 16
  anacon_type pade
  k_grid 1 1 1
  state_upper_limit 100000
  
  # print_input_librpa .true.
  output librpa binary develop
  symmetry_reduced_k_grid .false.
  
  output gw_regular_kgrid
  # output self_energy
  
  
  ################################################################################
  #
  #  FHI-aims code project
  #  VB, Fritz-Haber Institut, 2009
  #
  #  Suggested "light" defaults for Li atom (to be pasted into control.in file)
  #  Be sure to double-check any results obtained with these settings for post-processing,
  #  e.g., with the "tight" defaults and larger basis sets.
  #
  ################################################################################
    species        Li
  #     global species definitions
      nucleus             3
      mass                6.941
  #
      l_hartree           4
  #
      cut_pot             3.5  1.5  1.0
      basis_dep_cutoff    1e-4
  #
      radial_base         29 5.0
      radial_multiplier   1
      angular_grids       specified
        division   0.4484  110
        division   0.5659  194
        division   0.6315  302
  #      division   0.6662  434
  #      division   0.8186  590
  #      division   0.9037  770
  #      division   6.2760  974
  #      outer_grid   974
        outer_grid   302
  ################################################################################
  #
  #  Definition of "minimal" basis
  #
  ################################################################################
  #     valence basis states
      valence      2  s   1.
  #     ion occupancy
      ion_occ      1  s   2.
  ################################################################################
  #
  #  Suggested additional basis functions. For production calculations,
  #  uncomment them one after another (the most important basis functions are
  #  listed first).
  #
  #  Constructed for dimers: 1.80 A, 2.25 A, 2.75 A, 3.50 A, 4.50 A
  #
  ################################################################################
  #  "First tier" - improvements: -189.23 meV to -6.35 meV
       hydro 2 p 1.6
  #     hydro 2 s 2
  #     hydro 3 d 2.6
  #  "Second tier" - improvements: -4.69 meV to -0.41 meV
  #     hydro 3 p 4.6
  #     hydro 2 p 1.8
  #     hydro 3 s 6.2
  #     hydro 4 d 4.7
  #     hydro 4 f 4.1
  #  "Third tier" - improvements: -0.20 meV to -0.15 meV
  #     hydro 4 d 0.95
  #     hydro 3 p 6.2
  #     hydro 3 s 1.7
  #  Further functions, listed for completeness
  #     VB: The following functions are only listed for completeness; test very
  #         carefully before any kind of production use. From the point of view
  #         of the basis construction, their main role is to fill up space,
  #         and they are solely determined by the location of the cutoff potential.
  #     hydro 3 p 0.1  # -0.15 meV
  #     hydro 4 d 5    # -0.12 meV
  #     hydro 4 f 0.1  # -0.14 meV
  #     hydro 5 g 0.1  # -0.06 meV
  
  
  
  
  -----------------------------------------------------------------------
  Completed first pass over input file control.in .
  -----------------------------------------------------------------------
  
  
  -----------------------------------------------------------------------
  Parsing geometry.in (first pass over file, find array dimensions only).
  The contents of geometry.in will be repeated verbatim below
  unless switched off by setting 'verbatim_writeout .false.' .
  in the first line of geometry.in .
  -----------------------------------------------------------------------
  
  lattice_vector 50.0  0.0  0.0
  lattice_vector  0.0 50.0  0.0
  lattice_vector  0.0  0.0 50.0
  atom_frac  0.5000   0.5000   0.500 Li
  initial_moment 1.0
  
  -----------------------------------------------------------------------
  Completed first pass over input file geometry.in .
  -----------------------------------------------------------------------
  

  Basic array size parameters:
  | Number of species                 :        1
  | Number of atoms                   :        1
  | Number of lattice vectors         :        3
  | Max. basis fn. angular momentum   :        1
  | Max. atomic/ionic basis occupied n:        2
  | Max. number of basis fn. types    :        2
  | Max. radial fns per species/type  :        2
  | Max. logarithmic grid size        :     1220
  | Max. radial integration grid size :       29
  | Max. angular integration grid size:      302
  | Max. angular grid division number :        8
  | Radial grid for Hartree potential :     1220
  | Number of spin channels           :        2

  Definition of standardized fundamental physical constants in this FHI-aims run:
  | Using the set of values used in FHI-aims up to 2024, which combines values from
  | different CODATA sets - see constants.f90.
  | Use the 'codata' keyword in control.in to change this selection.

  Memory overcommitment: We could not find /proc/sys/vm/overcommit_memory on your system.

------------------------------------------------------------
          Reading file control.in.
------------------------------------------------------------
  XC: Using PBE gradient-corrected functionals.
  Scalar relativistic treatment of kinetic energy: on-site free-atom approximation to ZORA.
  Occupation type: Gaussian broadening, width =   0.100000E-03 eV.
  Threshold for basis singularities:  0.0000E+00
  Periodic GW calculations will be started if finite k point sampling is also set. Please be warned that periodic GW is only at the experimental stage and is still under testing. Be cautious about your results.
  Spin treatment: Spin density functional theory - collinear spins.
  Using modified Gauss-Legendre frequency grid.
  Number of frequency points used for the self-energy calculation:     16
  Number of fitting parameters for analytical continuation :     16
  Using Pade approximation for analytical continuation.
  Found k-point grid:         1         1         1
  Upper limit of the eigenstates for the self-energy correction : 100000
  Request to not use symmetry reduced k-point grids.
  Calculate the periodic GW self-energy on regular k grid.

  Reading configuration options for species Li                  .
  | Found nuclear charge :   3.0000
  | Found atomic mass :    6.9409999999999998      amu
  | Found l_max for Hartree potential  :   4
  | Found cutoff potl. onset [A], width [A], scale factor :    3.50000    1.50000    1.00000
  | Threshold for basis-dependent cutoff potential is   0.100000E-03
  | Found data for basic radial integration grid :    29 points, outermost radius =    5.000 A
  | Found multiplier for basic radial grid :   1
  | Found angular grid specification: user-specified.
  | Specified grid contains     4 separate shells.
  | Check grid settings after all constraints further below.
  | Found free-atom valence shell :  2 s   1.000
  | No ionic wave fns used. Skipping ion_occ.
  | Found hydrogenic basis function :  2 p   1.600
  Species Li                  : Missing cutoff potential type.
  Defaulting to exp(1/x)/(1-x)^2 type cutoff potential.
  Species Li: No 'logarithmic' tag. Using default grid for free atom:
  | Default logarithmic grid data [bohr] : 0.1000E-03 0.1000E+03 0.1012E+01
  Species Li: On-site basis accuracy parameter (for Gram-Schmidt orthonormalisation) not specified.
  Using default value basis_acc =  0.1000000E-03.
  Species Li                  : Using default innermost maximum threshold i_radial=  2 for radial functions.
  Species Li                  : Default cutoff onset for free atom density etc. : 0.35000000E+01 AA.
  Species Li                  : Basic radial grid will be enhanced according to radial_multiplier =   1, to contain    29 grid points.

  Finished reading input file 'control.in'.

------------------------------------------------------------


------------------------------------------------------------
          Reading geometry description geometry.in.
------------------------------------------------------------
  | The smallest distance between any two atoms is        50.00000000 AA.
  | The first atom of this pair is atom number                      1 .
  | The second atom of this pair is atom number                     1 .
  | Wigner-Seitz cell of the first atom image           0     0     1 .
  | (The Wigner-Seitz cell of the second atom is 0 0 0  by definition.)

  Symmetry information by spglib:
  | Precision set to  0.1E-04
  | Number of Operations  : 48
  | Space group           : 221
  | International         : Pm-3m
  | Schoenflies           : Oh^1
  Input structure read successfully.
  The structure contains        1 atoms,  and a total of          3.000 electrons.

  Input geometry:
  | Unit cell:
  |       50.00000000        0.00000000        0.00000000
  |        0.00000000       50.00000000        0.00000000
  |        0.00000000        0.00000000       50.00000000
  | Atomic structure:
  |       Atom                x [A]            y [A]            z [A]
  |    1: Species Li           25.00000000       25.00000000       25.00000000

  Lattice parameters for 3D lattice (in Angstroms) :    50.000000   50.000000   50.000000
  Angle(s) between unit vectors (in degrees)       :    90.000000   90.000000   90.000000


  Quantities derived from the lattice vectors (in Angstrom^-1):
  | Reciprocal lattice vector 1:  0.125664  0.000000  0.000000
  | Reciprocal lattice vector 2:  0.000000  0.125664  0.000000
  | Reciprocal lattice vector 3:  0.000000  0.000000  0.125664
  | Unit cell volume                               :   0.125000E+06  Angstrom^3

  Fractional coordinates:
                         L1                L2                L3
       atom_frac         0.50000000        0.50000000        0.50000000  Li

  Initial moments and charges:
  |  Atom   Moment         Charge        Species
  |     1   0.100000E+01   0.000000E+00   Li

  Slab Identifier: This is likely something in a big box.

  Finished reading input file 'geometry.in'.



  Consistency checks for stacksize environment parameter are next.

  | Maximum stacksize for task 0: 63 [Mb]
   *** Stacksize is not set to unlimited. This might cause problems...
  | Current stacksize for task 0: 63 [Mb]

  Consistency checks for the contents of control.in are next.

  MPI_IN_PLACE appears to work with this MPI implementation.
  | Keeping use_mpi_in_place .true. (see manual).
 use_prodbas, flag_RI T F
  Explicit treatment of the Coulomb operator is needed, but the RI method is not specified.
  Coulomb operator: Defaulting to 'LVL fast' resolution of identity - RI_type = LVL_fast
  Species Li: Using default value for prodbas_acc =   1.000000E-04.
  Species Li: Using default value max_l_prodbas =    20.
  Target number of points in a grid batch is not set. Defaulting to  100
  Method for grid partitioning is not set. Defaulting to parallel hash+maxmin partitioning.
  Batch size limit is not set. Defaulting to    200
  By default, will store active basis functions for each batch.
  If in need of memory, prune_basis_once .false. can be used to disable this option.
  communication_type for Hartree potential was not specified.
  Defaulting to calc_hartree .
  Defaulting to Pulay charge density mixer.
  Pulay mixer: Number of relevant iterations not set.
  Defaulting to    8 iterations.
  Pulay mixer: Number of initial linear mixing iterations not set.
  Defaulting to    0 iterations.
  Work space size for distributed Hartree potential not set.
  Defaulting to   0.200000E+03 MB.
  Mixing parameter for charge density mixing has not been set.
  Using default: charge_mix_param =     0.0500.
  The mixing parameter will be adjusted in iteration number     2 of each s.c.f. cycle (i.e., each geometry step).
  Mixing parameter for spin density mixing has not been set.
  Using charge_mix_param as default:     0.0500.
  Algorithm-dependent basis array size parameters:
  | n_max_pulay                         :        8
  Maximum number of self-consistency iterations not provided.
  Presetting  1000 iterations.
  Presetting      1001 iterations before the initial mixing cycle
  is restarted anyway using the sc_init_iter criterion / keyword.
  Presetting a factor      1.000 between actual scf density residual
  and density convergence criterion sc_accuracy_rho below which sc_init_iter
  takes no effect.
 * No s.c.f. convergence criteria (sc_accuracy_*) were provided in control.in.
 * The run will proceed with a reasonable default guess, but please check whether.
 * the s.c.f. cycles seem to take too much or too little time.
  Calculation of forces was not defined in control.in. No forces will be calculated.
  Geometry relaxation not requested: no relaxation will be performed.
 * Notice: The s.c.f. convergence criterion sc_accuracy_rho was not provided.
 * We used to stop in this case, and ask the user to provide reasonable
 * scf convergence criteria. However, this led some users to employ criteria
 * that led to extremely long run times, e.g., for simple relaxation.
 * We now preset a default value for sc_accuracy_rho if it is not set.
 * You may still wish to check if this setting is too tight or too loose for your needs.
 * Based on n_atoms and forces and force-correction status, FHI-aims chose sc_accuracy_rho =  0.100000E-05 .
  No accuracy limit for integral partition fn. given. Defaulting to  0.1000E-14.
  No threshold value for u(r) in integrations given. Defaulting to  0.1000E-05.
  No accuracy for occupation numbers given. Defaulting to  0.1000E-12.
  No threshold value for occupation numbers given. Defaulting to  0.0000E+00.
  No accuracy for fermi level given. Defaulting to  0.1000E-19.
  Maximum # of iterations to find E_F not set. Defaulting to  200.
  Preferred method for the eigenvalue solver ('KS_method') not specified in 'control.in'.
  Defaulting to serial version LAPACK (via ELSI).
  Will not use alltoall communication since running on < 1024 CPUs.
  partition_type (choice of integration weights) for integrals was not specified.
  | Using a version of the partition function of Stratmann and coworkers ('stratmann_sparse').
  | At each grid point, the set of atoms used to build the partition table is smoothly restricted to
  | only those atoms whose free-atom density would be non-zero at that grid point.
  Partitioning for Hartree potential was not defined. Using partition_type for integrals.
  | Adjusted default value of keyword multip_moments_threshold to:       0.10000000E-11
  | This value may affect high angular momentum components of the Hartree potential in periodic systems.
  Threshold for auxiliary basis singularities not set.
  Default threshold for auxiliary basis singularities:  0.1000E-04
  * Periodic GW calculations will start ......
  * Detected nk=1 along one of reciprocal lattice vectors: could be surface/chain/molecule
  * finite size correction switched off for above systems by default. Set periodic_gw_force_finite_size_correction .true. to apply it anyway
  * - Head correction switched on, q->0 in direction:   0.577350  0.577350  0.577350
  * - Wing correction switched off
  Eigen-decomposition algorithm is used to invert dielectric matrix in periodic GW.
  [LibRPA interface] Arrays for subsequent LibRPA calculation will be written
  [LibRPA interface] Will generate output in format for develop branch
  [LibRPA interface] Large arrays will be written in binary format: triple coefficients (Cs), Coulomb matrices (coulomb_mat, coulomb_cut)
  [LibRPA interface] Switch off filtering of real-space RI coefficients for export
  No q(lm)/r^(l+1) cutoff set for long-range Hartree potential.
  | Using default value of  0.100000E-09 .
  | Verify using the multipole_threshold keyword.
  Defaulting to new monopole extrapolation.
  Density update method: automatic selection selected.
  Using density matrix based charge density update.
  Using density matrix based charge density update.
  Using packed matrix style: index .
  Threshold of packed matrixes:  0.000000E+00
** WARNING:
 * This is an experimental version of the periodic GW implemenation.
 * We are still actively working on it to improve the efficiency and reliability.
 * Do not rely on any results you obtained from periodic GW calculation.
** END OF WARNING
  Charge integration errors on the 3D integration grid will be compensated
  by explicit normalization and distribution of residual charges.
  Use the "compensate_multipole_errors" flag to change this behaviour.
  Default to 1D ("use_logsbt") integrations for auxiliary 2-center integrals.
  Default onset of logarithmic r-grid for SBT is -38.000000000000
  Default onset of logarithmic k-grid for SBT is -25.000000000000
  Default range of logarithmic r- and k-grid for SBT is  45.000000000000
  Default number of logarithmic r- and k-grid for SBT is   4096
  Set 'collect_eigenvectors' to be '.true.' for all serial calculations. This is mandatory.
  Set 'collect_eigenvectors' to be '.true.' for GW/RPA/MP2, SCREX/COHSEX cluster calculations
  Set 'collect_eigenvectors' to be '.true.' for qpe_calc (quasiparticle energy).
  Set 'collect_eigenvectors' to be '.true.' for KS_method lapack_fast and serial.
  Found potential conflicts with setting 'use_local_index' for this calculation. Will not set it.

  Consistency checks for the contents of geometry.in are next.


  Range separation radius for Ewald summation (hartree_convergence_parameter):      5.00000000 bohr.
  Number of empty states per atom not set in control.in .
  | Since you are using a method that relies on the unoccupied spectrum
  | (MP2,GW,RPA et al.), will use the full Hamiltonian size (see below)
  | as the max. possible number of states (occupied plus empty).

  Structure-dependent array size parameters: 
  | Number of distinct atom types in initial rho :        1
  | Maximum number of distinct radial functions  :        3
  | Maximum number of basis functions            :        5
  | Number of Kohn-Sham states (occupied + empty):        5
------------------------------------------------------------
  Setting Coulomb cut-width to  1.091868692359 * rcut.
  Setting Coulomb cutting radius rcut to 25.000000000000 A.

  Checking k-grid inconsistencies now:
  | k-point density for reciprocal lattice vector 1 is    7.96 nkpts / Angstrom^-1
  | k-point density for reciprocal lattice vector 2 is    7.96 nkpts / Angstrom^-1
  | k-point density for reciprocal lattice vector 3 is    7.96 nkpts / Angstrom^-1

  | Ratio of k-point densities for reciprocal lattice vectors 1 vs 2 is    1.00
  | Ratio of k-point densities for reciprocal lattice vectors 1 vs 3 is    1.00
  | Ratio of k-point densities for reciprocal lattice vectors 2 vs 3 is    1.00

  * The specified k_grid leads to a nearly homogenous k-grid density in non-vacuum directions,
  * and seems sensible.

  | Checks passed.

  Performing system and environment tests:
  | Environment variable OMP_NUM_THREADS correctly set to 1.
  | Checking for ScaLAPACK...
  | Testing pdtran()...
  | All pdtran() tests passed.

------------------------------------------------------------
          Preparing all fixed parts of the calculation.
------------------------------------------------------------
  Determining machine precision:
     2.2250738585072014E-308
  Setting up grids for atomic and cluster calculations.

  Creating wave function, potential, and density for free atoms.
  Runtime choices for atomic solver:
  | atomic solver xc        : PBE
  | compute density gradient: 1
  | compute kinetic density : F

  Species: Li

  List of occupied orbitals and eigenvalues:
    n    l              occ      energy [Ha]    energy [eV]
    1    0           2.0000        -1.877178       -51.0806
    2    0           1.0000        -0.084117        -2.2889

  Spin-polarized or charged system:
  Charge density initialized according to selected moments and charges.

  Creating spin-polarized density from free atoms.

  Species: Li
  Charge:   0.000000
  Moment:   1.000000

  List of occupied orbitals and eigenvalues:
    n    l      energy [Ha]    energy [eV]    occupation
  Spin-up
    1    0        -1.876974       -51.0751     1.00000000
    2    0        -0.100897        -2.7456     1.00000000
  Spin-down
    1    0        -1.867579       -50.8194     1.00000000
    2    0         0.015167         0.4127     0.00000000


  Adding cutoff potential to free-atom effective potential.
  Creating fixed part of basis set: Ionic, confined, hydrogenic.

  Li                   hydrogenic:

  List of hydrogenic basis orbitals: 
    n    l      effective z      eigenvalue [eV]  inner max. [A]     outer max. [A]     outer radius [A]   
    2    1         1.600000        -8.6069           1.303334           1.303334           4.591005

  Creating atomic-like basis functions for current effective potential.

  Species Li                  :

  List of atomic basis orbitals and eigenvalues:
    n    l      energy [Ha]    energy [eV]    outer radius [A]
    1    0        -1.877178       -51.0806       4.062706
    2    0        -0.084117        -2.2889       4.591005

  Assembling full basis from fixed parts.
  | Species Li :   atomic orbital   1 s accepted.
  | Species Li :   atomic orbital   2 s accepted.
  | Species Li :    hydro orbital   2 p accepted.

  Basis size parameters after reduction:
  | Total number of radial functions:        3
  | Total number of basis functions :        5

  Per-task memory consumption for arrays in subroutine allocate_ext:
  |           0.937272MB.
  Testing on-site integration grid accuracy.
  |  Species  Function  <phi|h_atom|phi> (log., in eV)  <phi|h_atom|phi> (rad., in eV)
           1        1                -51.0806204800                -51.0806126801
           1        2                 -2.3264091853                 -2.3230145013
           1        3                  0.3869419343                  0.3984789516

  Preparing densities etc. for the partition functions (integrals / Hartree potential).

  Preparations completed.
  max(cpu_time)          :      0.043 s.
  Wall clock time (cpu1) :      0.048 s.
------------------------------------------------------------

  Initializing index lists of integration centers etc. from given atomic structure:
  Mapping all atomic coordinates to central unit cell.

  Initializing the k-points
  | Number of k-points                             :         1
  The eigenvectors in the calculations are REAL.
  | K-points in task   0:         1
  | Consuming          0 KiB for k_phase_exx.
  | Number of basis functions in the Hamiltonian integrals :        40
  | Number of basis functions in a single unit cell        :         5
  | Number of centers in hartree potential         :         1
  | Number of centers in hartree multipole         :         1
  | Number of centers in electron density summation:         1
  | Number of centers in basis integrals           :         8
  | Number of centers in integrals                 :         8
  | Number of centers in hamiltonian               :         1
  | Consuming          0 KiB for k_phase.
  | Number of super-cells (origin) [n_cells]                     :          27
  | Number of super-cells (after PM_index) [n_cells]             :           9
  | Number of super-cells in hamiltonian [n_cells_in_hamiltonian]:           2
  | Size of matrix packed + index [n_hamiltonian_matrix_size] :          16

------------------------------------------------------------
          Begin self-consistency loop: Initialization.

          Date     :  20250519, Time     :  164533.137
------------------------------------------------------------
  | Estimated reciprocal-space cutoff momentum G_max:         1.84432723 bohr^-1 .
  | Reciprocal lattice points for long-range Hartree potential:   89198
  Partitioning the integration grid into batches with parallel hashing+maxmin method.
  | Number of batches:       64
  | Maximal batch size:      97
  | Minimal batch size:      92
  | Average batch size:      94.469
  | Standard deviation of batch sizes:       1.510

  Integration load balanced across     1 MPI tasks.
  Work distribution over tasks is as follows:
  Task     0 has       6046 integration points.
  Initializing partition tables, free-atom densities, potentials, etc. across the integration grid (initialize_grid_storage).
  | initialize_grid_storage: Actual outermost partition radius vs. multipole_radius_free
  | (-- VB: in principle, multipole_radius_free should be larger, hence this output)
  | Species        1: Confinement radius =              4.999999999999999 AA, multipole_radius_free =              5.001180127821857 AA.
  | Species        1: outer_partition_radius set to              5.001180127821857 AA .
  | The sparse table of interatomic distances needs          0.04 kbyte instead of         0.51 kbyte of memory.
  | Net number of integration points:     6046
  | of which are non-zero points    :     6046
  | Numerical average free-atom electrostatic potential    :     -0.00096771 eV
  Renormalizing the initial density to the exact electron count on the 3D integration grid.
  | Initial density: Formal number of electrons (from input files) :       3.0000000000
  | Integrated number of electrons on 3D grid     :       2.9990411593
  | Charge integration error                      :      -0.0009588407
  | Normalization factor for density and gradient :       1.0003197157
  Renormalizing the free-atom superposition density to the exact electron count on the 3D integration grid.
  | Formal number of electrons (from input files) :       3.0000000000
  | Integrated number of electrons on 3D grid     :       2.9989390425
  | Charge integration error                      :      -0.0010609575
  | Normalization factor for density and gradient :       1.0003537776
  Obtaining max. number of non-zero basis functions in each batch (get_n_compute_maxes).
  | Maximal number of non-zero basis functions:       10 in task     0
  Initialize hartree_potential_storage
  Max. number of atoms included in rho_multipole:            1

  Evaluating partitioned Hartree potential by multipole expansion.
  | Original multipole sum: apparent total charge =  -0.336274E-13
  | Sum of charges compensated after spline to logarithmic grids =   0.337093E-03
  | Analytical far-field extrapolation by fixed multipoles:
  | Hartree multipole sum: apparent total charge =  -0.000000E+00
  Summing up the Hartree potential.
  | Ewald reciprocal-space coefficients, myid =     0 : cpu      0.004 s, wall      0.004 s.
  Time summed over all CPUs for potential: real work        0.157 s, elapsed        0.157 s
  | RMS charge density error from multipole expansion :   0.194399E-15
  | Average real-space part of the electrostatic potential :      0.00002309 eV

  Allocating        0.000 MB for KS_eigenvector
  Integrating Hamiltonian matrix: batch-based integration.
  Time summed over all CPUs for integration: real work        0.006 s, elapsed        0.006 s
  Integrating overlap matrix.
  Time summed over all CPUs for integration: real work        0.001 s, elapsed        0.001 s

  Updating Kohn-Sham eigenvalues and eigenvectors using ELSI and the (modified) LAPACK eigensolver.
  Singularity check in k-point 1, task 0 (analysis for other k-points/tasks may follow below):
  Overlap matrix is not singular
  | Lowest and highest eigenvalues :  0.9989E+00,  0.1000E+01
  Finished singularity check of overlap matrix
  | Time :     0.001 s
  Starting LAPACK eigensolver
  Finished Cholesky decomposition
  | Time :     0.000 s
  Finished transformation to standard eigenproblem
  | Time :     0.000 s
  Finished solving standard eigenproblem
  | Time :     0.000 s
  Finished back-transformation of eigenvectors
  | Time :     0.000 s

  Obtaining occupation numbers and electronic chemical potential using ELSI.
  | Note that, for insulating systems, the printed 'chemical potential' value is not uniquely defined.
  | It can be anywhere in the energy gap, as long as it correctly separates occupied and unoccupied states.
  | In systems with a gap, the physically relevant chemical potential is the VBM or HOMO.

  | Chemical potential (Fermi level):    -1.41240182 eV
  Writing Kohn-Sham eigenvalues.

  Spin-up eigenvalues:

  State    Occupation    Eigenvalue [Ha]    Eigenvalue [eV]
      1       1.00000          -1.877219          -51.08172
      2       1.00000          -0.102302           -2.78377
      3       0.00000          -0.001508           -0.04104
      4       0.00000          -0.001508           -0.04104
      5       0.00000          -0.001508           -0.04104

  Spin-down eigenvalues:

  State    Occupation    Eigenvalue [Ha]    Eigenvalue [eV]
      1       1.00000          -1.867829          -50.82621
      2       0.00000           0.022811            0.62071
      3       0.00000           0.099248            2.70068
      4       0.00000           0.099248            2.70068
      5       0.00000           0.099248            2.70068

  Current spin moment of the entire structure :
  | N = N_up - N_down :    1.00
  | S                 :    0.50
  | J                 :    2.00

  Highest occupied state (VBM) at     -2.78376734 eV (relative to internal zero)
  | Occupation number:      1.00000000
  | K-point:       1 at    0.000000    0.000000    0.000000 (in units of recip. lattice)
  | Spin channel:        1

  Lowest unoccupied state (CBM) at    -0.04103630 eV (relative to internal zero)
  | Occupation number:      0.00000000
  | K-point:       1 at    0.000000    0.000000    0.000000 (in units of recip. lattice)
  | Spin channel:        1

  The gap value is above 0.2 eV. Unless you are using a very sparse k-point grid,
  this system is most likely an insulator or a semiconductor.
  ESTIMATED overall HOMO-LUMO gap:      2.74273103 eV between HOMO at k-point 1 and LUMO at k-point 1
  Calculating total energy contributions from superposition of free atom densities.

  Total energy components:
  | Sum of eigenvalues            :          -3.84734941 Ha        -104.69170405 eV
  | XC energy correction          :          -1.81921326 Ha         -49.50331153 eV
  | XC potential correction       :           2.32642314 Ha          63.30519450 eV
  | Free-atom electrostatic energy:          -4.10515203 Ha        -111.70687031 eV
  | Hartree energy correction     :          -0.01039651 Ha          -0.28290334 eV
  | Entropy correction            :          -0.00000000 Ha          -0.00000000 eV
  | ---------------------------
  | Total energy                  :          -7.45568807 Ha        -202.87959473 eV
  | Total energy, T -> 0          :          -7.45568807 Ha        -202.87959473 eV  <-- do not rely on this value for anything but (periodic) metals
  | Electronic free energy        :          -7.45568807 Ha        -202.87959473 eV

  Derived energy quantities:
  | Kinetic energy                :           7.46573911 Ha         203.15309745 eV
  | Electrostatic energy          :         -13.10221392 Ha        -356.52938065 eV
  | Energy correction for multipole
  | error in Hartree potential    :           0.00000000 Ha           0.00000000 eV
  | Sum of eigenvalues per atom                           :        -104.69170405 eV
  | Total energy (T->0) per atom                          :        -202.87959473 eV  <-- do not rely on this value for anything but (periodic) metals
  | Electronic free energy per atom                       :        -202.87959473 eV

  End scf initialization - timings             :  max(cpu_time)    wall_clock(cpu1)
  | Time for scf. initialization                :        0.176 s           0.192 s
  | Boundary condition initialization           :        0.029 s           0.032 s
  | Integration                                 :        0.006 s           0.009 s
  | Solution of K.-S. eqns.                     :        0.001 s           0.002 s
  | Grid partitioning                           :        0.005 s           0.006 s
  | Preloading free-atom quantities on grid     :        0.160 s           0.167 s
  | Free-atom superposition energy              :        0.002 s           0.002 s
  | Total energy evaluation                     :        0.000 s           0.001 s

  Partial memory accounting:
  | Current value for overall tracked memory usage:
  |   Minimum:        0.001 MB (on task 0)
  |   Maximum:        0.001 MB (on task 0)
  |   Average:        0.001 MB
  | Peak value for overall tracked memory usage:
  |   Minimum:        0.208 MB (on task 0 after allocating grid_partition)
  |   Maximum:        0.208 MB (on task 0 after allocating grid_partition)
  |   Average:        0.208 MB
  | Largest tracked array allocation so far:
  |   Minimum:        0.138 MB (all_coords on task 0)
  |   Maximum:        0.138 MB (all_coords on task 0)
  |   Average:        0.138 MB
  Note:  These values currently only include a subset of arrays which are explicitly tracked.
  The "true" memory usage will be greater.
------------------------------------------------------------
  Evaluating new KS density using the density matrix
  Evaluating density matrix
  Evaluating density matrix
  Time summed over all CPUs for getting density from density matrix: real work        0.005 s, elapsed        0.005 s
  Integration grid: deviation in total charge (<rho> - N_e) =   1.199041E-14
  | <rho_up-rho_dn> = N_up-N_dn =      1.0000; <|rho_up-rho_dn|> =      1.0000

  Time for density update prior                :  max(cpu_time)    wall_clock(cpu1)
  | self-consistency iterative process          :        0.005 s           0.006 s

------------------------------------------------------------
          Begin self-consistency iteration #    1

  Date     :  20250519, Time     :  164533.335
------------------------------------------------------------
  Pulay mixing of updated and previous charge densities.
  Renormalizing the density to the exact electron count on the 3D integration grid.
  | Formal number of electrons (from input files) :       3.0000000000
  | Integrated number of electrons on 3D grid     :       3.0000000000
  | Charge integration error                      :       0.0000000000
  | Normalization factor for density and gradient :       1.0000000000

  Evaluating partitioned Hartree potential by multipole expansion.
  | Original multipole sum: apparent total charge =  -0.125201E-13
  | Sum of charges compensated after spline to logarithmic grids =   0.320120E-03
  | Analytical far-field extrapolation by fixed multipoles:
  | Hartree multipole sum: apparent total charge =  -0.000000E+00
  Summing up the Hartree potential.
  Time summed over all CPUs for potential: real work        0.155 s, elapsed        0.155 s
  | RMS charge density error from multipole expansion :   0.166665E-14
  | Average real-space part of the electrostatic potential :      0.00002191 eV

  Integrating Hamiltonian matrix: batch-based integration.
  Time summed over all CPUs for integration: real work        0.004 s, elapsed        0.004 s

  Updating Kohn-Sham eigenvalues and eigenvectors using ELSI and the (modified) LAPACK eigensolver.
  Starting LAPACK eigensolver
  Finished Cholesky decomposition
  | Time :     0.000 s
  Finished transformation to standard eigenproblem
  | Time :     0.000 s
  Finished solving standard eigenproblem
  | Time :     0.000 s
  Finished back-transformation of eigenvectors
  | Time :     0.000 s

  Obtaining occupation numbers and electronic chemical potential using ELSI.
  | Note that, for insulating systems, the printed 'chemical potential' value is not uniquely defined.
  | It can be anywhere in the energy gap, as long as it correctly separates occupied and unoccupied states.
  | In systems with a gap, the physically relevant chemical potential is the VBM or HOMO.

  | Chemical potential (Fermi level):    -1.41424668 eV
  Writing Kohn-Sham eigenvalues.

  Spin-up eigenvalues:

  State    Occupation    Eigenvalue [Ha]    Eigenvalue [eV]
      1       1.00000          -1.877462          -51.08835
      2       1.00000          -0.102365           -2.78548
      3       0.00000          -0.001581           -0.04301
      4       0.00000          -0.001581           -0.04301
      5       0.00000          -0.001581           -0.04301

  Spin-down eigenvalues:

  State    Occupation    Eigenvalue [Ha]    Eigenvalue [eV]
      1       1.00000          -1.868070          -50.83278
      2       0.00000           0.022982            0.62537
      3       0.00000           0.099312            2.70242
      4       0.00000           0.099312            2.70242
      5       0.00000           0.099312            2.70242

  Current spin moment of the entire structure :
  | N = N_up - N_down :    1.00
  | S                 :    0.50
  | J                 :    2.00

  Highest occupied state (VBM) at     -2.78548475 eV (relative to internal zero)
  | Occupation number:      1.00000000
  | K-point:       1 at    0.000000    0.000000    0.000000 (in units of recip. lattice)
  | Spin channel:        1

  Lowest unoccupied state (CBM) at    -0.04300861 eV (relative to internal zero)
  | Occupation number:      0.00000000
  | K-point:       1 at    0.000000    0.000000    0.000000 (in units of recip. lattice)
  | Spin channel:        1

  The gap value is above 0.2 eV. Unless you are using a very sparse k-point grid,
  this system is most likely an insulator or a semiconductor.
  ESTIMATED overall HOMO-LUMO gap:      2.74247614 eV between HOMO at k-point 1 and LUMO at k-point 1

  Total energy components:
  | Sum of eigenvalues            :          -3.84789714 Ha        -104.70660865 eV
  | XC energy correction          :          -1.81903811 Ha         -49.49854538 eV
  | XC potential correction       :           2.32619968 Ha          63.29911378 eV
  | Free-atom electrostatic energy:          -4.10515203 Ha        -111.70687031 eV
  | Hartree energy correction     :          -0.00980421 Ha          -0.26678619 eV
  | Entropy correction            :          -0.00000000 Ha          -0.00000000 eV
  | ---------------------------
  | Total energy                  :          -7.45569182 Ha        -202.87969675 eV
  | Total energy, T -> 0          :          -7.45569182 Ha        -202.87969675 eV  <-- do not rely on this value for anything but (periodic) metals
  | Electronic free energy        :          -7.45569182 Ha        -202.87969675 eV

  Derived energy quantities:
  | Kinetic energy                :           7.46516687 Ha         203.13752593 eV
  | Electrostatic energy          :         -13.10182057 Ha        -356.51867729 eV
  | Energy correction for multipole
  | error in Hartree potential    :          -0.00000000 Ha          -0.00000000 eV
  | Sum of eigenvalues per atom                           :        -104.70660865 eV
  | Total energy (T->0) per atom                          :        -202.87969675 eV  <-- do not rely on this value for anything but (periodic) metals
  | Electronic free energy per atom                       :        -202.87969675 eV
  Evaluating new KS density using the density matrix
  Evaluating density matrix
  Evaluating density matrix
  Time summed over all CPUs for getting density from density matrix: real work        0.004 s, elapsed        0.004 s
  Integration grid: deviation in total charge (<rho> - N_e) =   1.243450E-14
  | <rho_up-rho_dn> = N_up-N_dn =      1.0000; <|rho_up-rho_dn|> =      1.0000

  Self-consistency convergence accuracy:
  | Change of charge/spin density :  0.2107E-02  0.1895E-02
  | Change of unmixed KS charge/spin density :  0.1769E+01  0.5344E-01
  | Change of sum of eigenvalues  : -0.1490E-01 eV
  | Change of total energy        : -0.1020E-03 eV


------------------------------------------------------------
  End self-consistency iteration #     1       :  max(cpu_time)    wall_clock(cpu1)
  | Time for this iteration                     :        0.166 s           0.168 s
  | Charge density update                       :        0.004 s           0.004 s
  | Density mixing                              :        0.000 s           0.000 s
  | Hartree multipole update                    :        0.000 s           0.000 s
  | Hartree multipole summation                 :        0.156 s           0.159 s
  | Integration                                 :        0.004 s           0.004 s
  | Solution of K.-S. eqns.                     :        0.000 s           0.001 s
  | Total energy evaluation                     :        0.000 s           0.000 s

  Partial memory accounting:
  | Current value for overall tracked memory usage:
  |   Minimum:        6.736 MB (on task 0)
  |   Maximum:        6.736 MB (on task 0)
  |   Average:        6.736 MB
  | Peak value for overall tracked memory usage:
  |   Minimum:        6.781 MB (on task 0 after allocating kdm_complex)
  |   Maximum:        6.781 MB (on task 0 after allocating kdm_complex)
  |   Average:        6.781 MB
  | Largest tracked array allocation so far:
  |   Minimum:        2.214 MB (previous_rho_gradient_diff on task 0)
  |   Maximum:        2.214 MB (previous_rho_gradient_diff on task 0)
  |   Average:        2.214 MB
  Note:  These values currently only include a subset of arrays which are explicitly tracked.
  The "true" memory usage will be greater.
------------------------------------------------------------

------------------------------------------------------------
          Begin self-consistency iteration #    2

  Date     :  20250519, Time     :  164533.503
------------------------------------------------------------
  Pulay mixing of updated and previous charge densities.
  Renormalizing the density to the exact electron count on the 3D integration grid.
  | Formal number of electrons (from input files) :       3.0000000000
  | Integrated number of electrons on 3D grid     :       3.0000000000
  | Charge integration error                      :      -0.0000000000
  | Normalization factor for density and gradient :       1.0000000000

  Evaluating partitioned Hartree potential by multipole expansion.
  | Original multipole sum: apparent total charge =  -0.123867E-13
  | Sum of charges compensated after spline to logarithmic grids =  -0.125827E-05
  | Analytical far-field extrapolation by fixed multipoles:
  | Hartree multipole sum: apparent total charge =  -0.000000E+00
  Summing up the Hartree potential.
  Time summed over all CPUs for potential: real work        0.155 s, elapsed        0.155 s
  | RMS charge density error from multipole expansion :   0.330363E-13
  | Average real-space part of the electrostatic potential :     -0.00000049 eV

  Integrating Hamiltonian matrix: batch-based integration.
  Time summed over all CPUs for integration: real work        0.004 s, elapsed        0.004 s

  Updating Kohn-Sham eigenvalues and eigenvectors using ELSI and the (modified) LAPACK eigensolver.
  Starting LAPACK eigensolver
  Finished Cholesky decomposition
  | Time :     0.000 s
  Finished transformation to standard eigenproblem
  | Time :     0.000 s
  Finished solving standard eigenproblem
  | Time :     0.000 s
  Finished back-transformation of eigenvectors
  | Time :     0.000 s

  Obtaining occupation numbers and electronic chemical potential using ELSI.
  | Note that, for insulating systems, the printed 'chemical potential' value is not uniquely defined.
  | It can be anywhere in the energy gap, as long as it correctly separates occupied and unoccupied states.
  | In systems with a gap, the physically relevant chemical potential is the VBM or HOMO.

  | Chemical potential (Fermi level):    -1.44777617 eV
  Current spin moment of the entire structure :
  | N = N_up - N_down :    1.00
  | S                 :    0.50
  | J                 :    2.00

  Highest occupied state (VBM) at     -2.81679011 eV (relative to internal zero)
  | Occupation number:      1.00000000
  | K-point:       1 at    0.000000    0.000000    0.000000 (in units of recip. lattice)
  | Spin channel:        1

  Lowest unoccupied state (CBM) at    -0.07876222 eV (relative to internal zero)
  | Occupation number:      0.00000000
  | K-point:       1 at    0.000000    0.000000    0.000000 (in units of recip. lattice)
  | Spin channel:        1

  The gap value is above 0.2 eV. Unless you are using a very sparse k-point grid,
  this system is most likely an insulator or a semiconductor.
  ESTIMATED overall HOMO-LUMO gap:      2.73802789 eV between HOMO at k-point 1 and LUMO at k-point 1

  Checking to see if s.c.f. parameters should be adjusted.
  The system likely has a gap. Increased the default Pulay mixing parameter (charge_mix_param). Value:   0.200000 .

  Total energy components:
  | Sum of eigenvalues            :          -3.85822484 Ha        -104.98763958 eV
  | XC energy correction          :          -1.81578000 Ha         -49.40988765 eV
  | XC potential correction       :           2.32204108 Ha          63.18595272 eV
  | Free-atom electrostatic energy:          -4.10515203 Ha        -111.70687031 eV
  | Hartree energy correction     :           0.00138343 Ha           0.03764516 eV
  | Entropy correction            :          -0.00000000 Ha          -0.00000000 eV
  | ---------------------------
  | Total energy                  :          -7.45573235 Ha        -202.88079965 eV
  | Total energy, T -> 0          :          -7.45573235 Ha        -202.88079965 eV  <-- do not rely on this value for anything but (periodic) metals
  | Electronic free energy        :          -7.45573235 Ha        -202.88079965 eV

  Derived energy quantities:
  | Kinetic energy                :           7.45440914 Ha         202.84479346 eV
  | Electrostatic energy          :         -13.09436150 Ha        -356.31570547 eV
  | Energy correction for multipole
  | error in Hartree potential    :           0.00000000 Ha           0.00000000 eV
  | Sum of eigenvalues per atom                           :        -104.98763958 eV
  | Total energy (T->0) per atom                          :        -202.88079965 eV  <-- do not rely on this value for anything but (periodic) metals
  | Electronic free energy per atom                       :        -202.88079965 eV
  Evaluating new KS density using the density matrix
  Evaluating density matrix
  Evaluating density matrix
  Time summed over all CPUs for getting density from density matrix: real work        0.004 s, elapsed        0.004 s
  Integration grid: deviation in total charge (<rho> - N_e) =  -8.881784E-16
  | <rho_up-rho_dn> = N_up-N_dn =      1.0000; <|rho_up-rho_dn|> =      1.0000

  Self-consistency convergence accuracy:
  | Change of charge/spin density :  0.2000E-02  0.1801E-02
  | Change of unmixed KS charge/spin density :  0.2499E-05  0.2499E-05
  | Change of sum of eigenvalues  : -0.2810E+00 eV
  | Change of total energy        : -0.1103E-02 eV


------------------------------------------------------------
  End self-consistency iteration #     2       :  max(cpu_time)    wall_clock(cpu1)
  | Time for this iteration                     :        0.165 s           0.169 s
  | Charge density update                       :        0.004 s           0.004 s
  | Density mixing                              :        0.000 s           0.001 s
  | Hartree multipole update                    :        0.000 s           0.000 s
  | Hartree multipole summation                 :        0.155 s           0.159 s
  | Integration                                 :        0.004 s           0.005 s
  | Solution of K.-S. eqns.                     :        0.000 s           0.000 s
  | Total energy evaluation                     :        0.000 s           0.000 s

  Partial memory accounting:
  | Current value for overall tracked memory usage:
  |   Minimum:        6.737 MB (on task 0)
  |   Maximum:        6.737 MB (on task 0)
  |   Average:        6.737 MB
  | Peak value for overall tracked memory usage:
  |   Minimum:        6.782 MB (on task 0 after allocating kdm_complex)
  |   Maximum:        6.782 MB (on task 0 after allocating kdm_complex)
  |   Average:        6.782 MB
  | Largest tracked array allocation so far:
  |   Minimum:        2.214 MB (previous_rho_gradient_diff on task 0)
  |   Maximum:        2.214 MB (previous_rho_gradient_diff on task 0)
  |   Average:        2.214 MB
  Note:  These values currently only include a subset of arrays which are explicitly tracked.
  The "true" memory usage will be greater.
------------------------------------------------------------

------------------------------------------------------------
          Begin self-consistency iteration #    3

  Date     :  20250519, Time     :  164533.672
------------------------------------------------------------
  Pulay mixing of updated and previous charge densities.
  Renormalizing the density to the exact electron count on the 3D integration grid.
  | Formal number of electrons (from input files) :       3.0000000000
  | Integrated number of electrons on 3D grid     :       3.0000000000
  | Charge integration error                      :      -0.0000000000
  | Normalization factor for density and gradient :       1.0000000000

  Evaluating partitioned Hartree potential by multipole expansion.
  | Original multipole sum: apparent total charge =   0.739711E-14
  | Sum of charges compensated after spline to logarithmic grids =  -0.236586E-05
  | Analytical far-field extrapolation by fixed multipoles:
  | Hartree multipole sum: apparent total charge =  -0.000000E+00
  Summing up the Hartree potential.
  Time summed over all CPUs for potential: real work        0.154 s, elapsed        0.154 s
  | RMS charge density error from multipole expansion :   0.342205E-13
  | Average real-space part of the electrostatic potential :     -0.00000056 eV

  Integrating Hamiltonian matrix: batch-based integration.
  Time summed over all CPUs for integration: real work        0.004 s, elapsed        0.004 s

  Updating Kohn-Sham eigenvalues and eigenvectors using ELSI and the (modified) LAPACK eigensolver.
  Starting LAPACK eigensolver
  Finished Cholesky decomposition
  | Time :     0.000 s
  Finished transformation to standard eigenproblem
  | Time :     0.000 s
  Finished solving standard eigenproblem
  | Time :     0.000 s
  Finished back-transformation of eigenvectors
  | Time :     0.000 s

  Obtaining occupation numbers and electronic chemical potential using ELSI.
  | Note that, for insulating systems, the printed 'chemical potential' value is not uniquely defined.
  | It can be anywhere in the energy gap, as long as it correctly separates occupied and unoccupied states.
  | In systems with a gap, the physically relevant chemical potential is the VBM or HOMO.

  | Chemical potential (Fermi level):    -1.44783285 eV
  Current spin moment of the entire structure :
  | N = N_up - N_down :    1.00
  | S                 :    0.50
  | J                 :    2.00

  Highest occupied state (VBM) at     -2.81683997 eV (relative to internal zero)
  | Occupation number:      1.00000000
  | K-point:       1 at    0.000000    0.000000    0.000000 (in units of recip. lattice)
  | Spin channel:        1

  Lowest unoccupied state (CBM) at    -0.07882574 eV (relative to internal zero)
  | Occupation number:      0.00000000
  | K-point:       1 at    0.000000    0.000000    0.000000 (in units of recip. lattice)
  | Spin channel:        1

  The gap value is above 0.2 eV. Unless you are using a very sparse k-point grid,
  this system is most likely an insulator or a semiconductor.
  ESTIMATED overall HOMO-LUMO gap:      2.73801422 eV between HOMO at k-point 1 and LUMO at k-point 1

  Total energy components:
  | Sum of eigenvalues            :          -3.85818966 Ha        -104.98668225 eV
  | XC energy correction          :          -1.81580287 Ha         -49.41051016 eV
  | XC potential correction       :           2.32207070 Ha          63.18675870 eV
  | Free-atom electrostatic energy:          -4.10515203 Ha        -111.70687031 eV
  | Hartree energy correction     :           0.00134150 Ha           0.03650400 eV
  | Entropy correction            :          -0.00000000 Ha          -0.00000000 eV
  | ---------------------------
  | Total energy                  :          -7.45573236 Ha        -202.88080001 eV
  | Total energy, T -> 0          :          -7.45573236 Ha        -202.88080001 eV  <-- do not rely on this value for anything but (periodic) metals
  | Electronic free energy        :          -7.45573236 Ha        -202.88080001 eV

  Derived energy quantities:
  | Kinetic energy                :           7.45459314 Ha         202.84980021 eV
  | Electrostatic energy          :         -13.09452263 Ha        -356.32009006 eV
  | Energy correction for multipole
  | error in Hartree potential    :          -0.00000000 Ha          -0.00000000 eV
  | Sum of eigenvalues per atom                           :        -104.98668225 eV
  | Total energy (T->0) per atom                          :        -202.88080001 eV  <-- do not rely on this value for anything but (periodic) metals
  | Electronic free energy per atom                       :        -202.88080001 eV
  Evaluating new KS density using the density matrix
  Evaluating density matrix
  Evaluating density matrix
  Time summed over all CPUs for getting density from density matrix: real work        0.005 s, elapsed        0.005 s
  Integration grid: deviation in total charge (<rho> - N_e) =   3.552714E-15
  | <rho_up-rho_dn> = N_up-N_dn =      1.0000; <|rho_up-rho_dn|> =      1.0000

  Self-consistency convergence accuracy:
  | Change of charge/spin density :  0.4311E-04  0.4999E-04
  | Change of unmixed KS charge/spin density :  0.4696E-04  0.4696E-04
  | Change of sum of eigenvalues  :  0.9573E-03 eV
  | Change of total energy        : -0.3591E-06 eV


------------------------------------------------------------
  End self-consistency iteration #     3       :  max(cpu_time)    wall_clock(cpu1)
  | Time for this iteration                     :        0.165 s           0.169 s
  | Charge density update                       :        0.005 s           0.005 s
  | Density mixing                              :        0.000 s           0.001 s
  | Hartree multipole update                    :        0.000 s           0.000 s
  | Hartree multipole summation                 :        0.155 s           0.158 s
  | Integration                                 :        0.004 s           0.005 s
  | Solution of K.-S. eqns.                     :        0.000 s           0.000 s
  | Total energy evaluation                     :        0.000 s           0.000 s

  Partial memory accounting:
  | Current value for overall tracked memory usage:
  |   Minimum:        6.737 MB (on task 0)
  |   Maximum:        6.737 MB (on task 0)
  |   Average:        6.737 MB
  | Peak value for overall tracked memory usage:
  |   Minimum:        6.782 MB (on task 0 after allocating kdm_complex)
  |   Maximum:        6.782 MB (on task 0 after allocating kdm_complex)
  |   Average:        6.782 MB
  | Largest tracked array allocation so far:
  |   Minimum:        2.214 MB (previous_rho_gradient_diff on task 0)
  |   Maximum:        2.214 MB (previous_rho_gradient_diff on task 0)
  |   Average:        2.214 MB
  Note:  These values currently only include a subset of arrays which are explicitly tracked.
  The "true" memory usage will be greater.
------------------------------------------------------------

------------------------------------------------------------
          Begin self-consistency iteration #    4

  Date     :  20250519, Time     :  164533.841
------------------------------------------------------------
  Pulay mixing of updated and previous charge densities.
  Renormalizing the density to the exact electron count on the 3D integration grid.
  | Formal number of electrons (from input files) :       3.0000000000
  | Integrated number of electrons on 3D grid     :       3.0000000000
  | Charge integration error                      :      -0.0000000000
  | Normalization factor for density and gradient :       1.0000000000

  Evaluating partitioned Hartree potential by multipole expansion.
  | Original multipole sum: apparent total charge =  -0.142783E-13
  | Sum of charges compensated after spline to logarithmic grids =  -0.236527E-05
  | Analytical far-field extrapolation by fixed multipoles:
  | Hartree multipole sum: apparent total charge =  -0.000000E+00
  Summing up the Hartree potential.
  Time summed over all CPUs for potential: real work        0.153 s, elapsed        0.153 s
  | RMS charge density error from multipole expansion :   0.341149E-13
  | Average real-space part of the electrostatic potential :     -0.00000056 eV

  Integrating Hamiltonian matrix: batch-based integration.
  Time summed over all CPUs for integration: real work        0.004 s, elapsed        0.004 s

  Updating Kohn-Sham eigenvalues and eigenvectors using ELSI and the (modified) LAPACK eigensolver.
  Starting LAPACK eigensolver
  Finished Cholesky decomposition
  | Time :     0.000 s
  Finished transformation to standard eigenproblem
  | Time :     0.000 s
  Finished solving standard eigenproblem
  | Time :     0.000 s
  Finished back-transformation of eigenvectors
  | Time :     0.000 s

  Obtaining occupation numbers and electronic chemical potential using ELSI.
  | Note that, for insulating systems, the printed 'chemical potential' value is not uniquely defined.
  | It can be anywhere in the energy gap, as long as it correctly separates occupied and unoccupied states.
  | In systems with a gap, the physically relevant chemical potential is the VBM or HOMO.

  | Chemical potential (Fermi level):    -1.44782536 eV
  Current spin moment of the entire structure :
  | N = N_up - N_down :    1.00
  | S                 :    0.50
  | J                 :    2.00

  Highest occupied state (VBM) at     -2.81683252 eV (relative to internal zero)
  | Occupation number:      1.00000000
  | K-point:       1 at    0.000000    0.000000    0.000000 (in units of recip. lattice)
  | Spin channel:        1

  Lowest unoccupied state (CBM) at    -0.07881821 eV (relative to internal zero)
  | Occupation number:      0.00000000
  | K-point:       1 at    0.000000    0.000000    0.000000 (in units of recip. lattice)
  | Spin channel:        1

  The gap value is above 0.2 eV. Unless you are using a very sparse k-point grid,
  this system is most likely an insulator or a semiconductor.
  ESTIMATED overall HOMO-LUMO gap:      2.73801431 eV between HOMO at k-point 1 and LUMO at k-point 1

  Total energy components:
  | Sum of eigenvalues            :          -3.85817993 Ha        -104.98641754 eV
  | XC energy correction          :          -1.81580754 Ha         -49.41063714 eV
  | XC potential correction       :           2.32207672 Ha          63.18692238 eV
  | Free-atom electrostatic energy:          -4.10515203 Ha        -111.70687031 eV
  | Hartree energy correction     :           0.00133042 Ha           0.03620265 eV
  | Entropy correction            :          -0.00000000 Ha          -0.00000000 eV
  | ---------------------------
  | Total energy                  :          -7.45573236 Ha        -202.88079996 eV
  | Total energy, T -> 0          :          -7.45573236 Ha        -202.88079996 eV  <-- do not rely on this value for anything but (periodic) metals
  | Electronic free energy        :          -7.45573236 Ha        -202.88079996 eV

  Derived energy quantities:
  | Kinetic energy                :           7.45462349 Ha         202.85062612 eV
  | Electrostatic energy          :         -13.09454831 Ha        -356.32078893 eV
  | Energy correction for multipole
  | error in Hartree potential    :           0.00000000 Ha           0.00000000 eV
  | Sum of eigenvalues per atom                           :        -104.98641754 eV
  | Total energy (T->0) per atom                          :        -202.88079996 eV  <-- do not rely on this value for anything but (periodic) metals
  | Electronic free energy per atom                       :        -202.88079996 eV
  Evaluating new KS density using the density matrix
  Evaluating density matrix
  Evaluating density matrix
  Time summed over all CPUs for getting density from density matrix: real work        0.004 s, elapsed        0.004 s
  Integration grid: deviation in total charge (<rho> - N_e) =   9.769963E-15
  | <rho_up-rho_dn> = N_up-N_dn =      1.0000; <|rho_up-rho_dn|> =      1.0000

  Self-consistency convergence accuracy:
  | Change of charge/spin density :  0.6542E-05  0.6536E-05
  | Change of unmixed KS charge/spin density :  0.6104E-06  0.6104E-06
  | Change of sum of eigenvalues  :  0.2647E-03 eV
  | Change of total energy        :  0.5794E-07 eV


------------------------------------------------------------
  End self-consistency iteration #     4       :  max(cpu_time)    wall_clock(cpu1)
  | Time for this iteration                     :        0.165 s           0.167 s
  | Charge density update                       :        0.004 s           0.005 s
  | Density mixing                              :        0.000 s           0.000 s
  | Hartree multipole update                    :        0.000 s           0.001 s
  | Hartree multipole summation                 :        0.155 s           0.157 s
  | Integration                                 :        0.004 s           0.004 s
  | Solution of K.-S. eqns.                     :        0.000 s           0.000 s
  | Total energy evaluation                     :        0.000 s           0.000 s

  Partial memory accounting:
  | Current value for overall tracked memory usage:
  |   Minimum:        6.737 MB (on task 0)
  |   Maximum:        6.737 MB (on task 0)
  |   Average:        6.737 MB
  | Peak value for overall tracked memory usage:
  |   Minimum:        6.783 MB (on task 0 after allocating kdm_complex)
  |   Maximum:        6.783 MB (on task 0 after allocating kdm_complex)
  |   Average:        6.783 MB
  | Largest tracked array allocation so far:
  |   Minimum:        2.214 MB (previous_rho_gradient_diff on task 0)
  |   Maximum:        2.214 MB (previous_rho_gradient_diff on task 0)
  |   Average:        2.214 MB
  Note:  These values currently only include a subset of arrays which are explicitly tracked.
  The "true" memory usage will be greater.
------------------------------------------------------------

------------------------------------------------------------
          Begin self-consistency iteration #    5

  Date     :  20250519, Time     :  164534.008
------------------------------------------------------------
  Pulay mixing of updated and previous charge densities.
  * Rank deficiency in solve_pulay; rank =     3; saved_iter =     4
  Renormalizing the density to the exact electron count on the 3D integration grid.
  | Formal number of electrons (from input files) :       3.0000000000
  | Integrated number of electrons on 3D grid     :       3.0000000000
  | Charge integration error                      :      -0.0000000000
  | Normalization factor for density and gradient :       1.0000000000

  Evaluating partitioned Hartree potential by multipole expansion.
  | Original multipole sum: apparent total charge =  -0.921157E-15
  | Sum of charges compensated after spline to logarithmic grids =  -0.236513E-05
  | Analytical far-field extrapolation by fixed multipoles:
  | Hartree multipole sum: apparent total charge =  -0.000000E+00
  Summing up the Hartree potential.
  Time summed over all CPUs for potential: real work        0.153 s, elapsed        0.153 s
  | RMS charge density error from multipole expansion :   0.331246E-13
  | Average real-space part of the electrostatic potential :     -0.00000056 eV

  Integrating Hamiltonian matrix: batch-based integration.
  Time summed over all CPUs for integration: real work        0.004 s, elapsed        0.004 s

  Updating Kohn-Sham eigenvalues and eigenvectors using ELSI and the (modified) LAPACK eigensolver.
  Starting LAPACK eigensolver
  Finished Cholesky decomposition
  | Time :     0.000 s
  Finished transformation to standard eigenproblem
  | Time :     0.000 s
  Finished solving standard eigenproblem
  | Time :     0.000 s
  Finished back-transformation of eigenvectors
  | Time :     0.000 s

  Obtaining occupation numbers and electronic chemical potential using ELSI.
  | Note that, for insulating systems, the printed 'chemical potential' value is not uniquely defined.
  | It can be anywhere in the energy gap, as long as it correctly separates occupied and unoccupied states.
  | In systems with a gap, the physically relevant chemical potential is the VBM or HOMO.

  | Chemical potential (Fermi level):    -1.44782387 eV
  Current spin moment of the entire structure :
  | N = N_up - N_down :    1.00
  | S                 :    0.50
  | J                 :    2.00

  Highest occupied state (VBM) at     -2.81683107 eV (relative to internal zero)
  | Occupation number:      1.00000000
  | K-point:       1 at    0.000000    0.000000    0.000000 (in units of recip. lattice)
  | Spin channel:        1

  Lowest unoccupied state (CBM) at    -0.07881667 eV (relative to internal zero)
  | Occupation number:      0.00000000
  | K-point:       1 at    0.000000    0.000000    0.000000 (in units of recip. lattice)
  | Spin channel:        1

  The gap value is above 0.2 eV. Unless you are using a very sparse k-point grid,
  this system is most likely an insulator or a semiconductor.
  ESTIMATED overall HOMO-LUMO gap:      2.73801441 eV between HOMO at k-point 1 and LUMO at k-point 1

  Total energy components:
  | Sum of eigenvalues            :          -3.85817801 Ha        -104.98636538 eV
  | XC energy correction          :          -1.81580845 Ha         -49.41066198 eV
  | XC potential correction       :           2.32207789 Ha          63.18695444 eV
  | Free-atom electrostatic energy:          -4.10515203 Ha        -111.70687031 eV
  | Hartree energy correction     :           0.00132824 Ha           0.03614328 eV
  | Entropy correction            :          -0.00000000 Ha          -0.00000000 eV
  | ---------------------------
  | Total energy                  :          -7.45573236 Ha        -202.88079995 eV
  | Total energy, T -> 0          :          -7.45573236 Ha        -202.88079995 eV  <-- do not rely on this value for anything but (periodic) metals
  | Electronic free energy        :          -7.45573236 Ha        -202.88079995 eV

  Derived energy quantities:
  | Kinetic energy                :           7.45462936 Ha         202.85078574 eV
  | Electrostatic energy          :         -13.09455326 Ha        -356.32092371 eV
  | Energy correction for multipole
  | error in Hartree potential    :          -0.00000000 Ha          -0.00000000 eV
  | Sum of eigenvalues per atom                           :        -104.98636538 eV
  | Total energy (T->0) per atom                          :        -202.88079995 eV  <-- do not rely on this value for anything but (periodic) metals
  | Electronic free energy per atom                       :        -202.88079995 eV

  Self-consistency convergence accuracy:
  | Change of charge/spin density :  0.9840E-06  0.9840E-06
  | Change of unmixed KS charge/spin density :  0.7899E-07  0.7899E-07
  | Change of sum of eigenvalues  :  0.5216E-04 eV
  | Change of total energy        :  0.7674E-08 eV

  Writing Kohn-Sham eigenvalues.

  Spin-up eigenvalues:

  State    Occupation    Eigenvalue [Ha]    Eigenvalue [eV]
      1       1.00000          -1.882042          -51.21297
      2       1.00000          -0.103517           -2.81683
      3       0.00000          -0.002896           -0.07882
      4       0.00000          -0.002896           -0.07882
      5       0.00000          -0.002896           -0.07882

  Spin-down eigenvalues:

  State    Occupation    Eigenvalue [Ha]    Eigenvalue [eV]
      1       1.00000          -1.872619          -50.95656
      2       0.00000           0.030084            0.81864
      3       0.00000           0.103028            2.80352
      4       0.00000           0.103028            2.80352
      5       0.00000           0.103028            2.80352

  Current spin moment of the entire structure :
  | N = N_up - N_down :    1.00
  | S                 :    0.50
  | J                 :    2.00

  Highest occupied state (VBM) at     -2.81683107 eV (relative to internal zero)
  | Occupation number:      1.00000000
  | K-point:       1 at    0.000000    0.000000    0.000000 (in units of recip. lattice)
  | Spin channel:        1

  Lowest unoccupied state (CBM) at    -0.07881667 eV (relative to internal zero)
  | Occupation number:      0.00000000
  | K-point:       1 at    0.000000    0.000000    0.000000 (in units of recip. lattice)
  | Spin channel:        1

  The gap value is above 0.2 eV. Unless you are using a very sparse k-point grid,
  this system is most likely an insulator or a semiconductor.
  ESTIMATED overall HOMO-LUMO gap:      2.73801441 eV between HOMO at k-point 1 and LUMO at k-point 1

  | Chemical Potential                          :    -1.44782387 eV
  | Note that, for insulating systems, the printed 'chemical potential' value is not uniquely defined.
  | It can be anywhere in the energy gap, as long as it correctly separates occupied and unoccupied states.
  | In systems with a gap, the physically relevant chemical potential is the VBM or HOMO.

  Self-consistency cycle converged.


------------------------------------------------------------
  End self-consistency iteration #     5       :  max(cpu_time)    wall_clock(cpu1)
  | Time for this iteration                     :        0.160 s           0.164 s
  | Charge density update                       :        0.000 s           0.000 s
  | Density mixing                              :        0.001 s           0.001 s
  | Hartree multipole update                    :        0.000 s           0.001 s
  | Hartree multipole summation                 :        0.154 s           0.157 s
  | Integration                                 :        0.004 s           0.005 s
  | Solution of K.-S. eqns.                     :        0.000 s           0.000 s
  | Total energy evaluation                     :        0.000 s           0.000 s

  Partial memory accounting:
  | Current value for overall tracked memory usage:
  |   Minimum:        6.738 MB (on task 0)
  |   Maximum:        6.738 MB (on task 0)
  |   Average:        6.738 MB
  | Peak value for overall tracked memory usage:
  |   Minimum:        6.783 MB (on task 0 after allocating kdm_complex)
  |   Maximum:        6.783 MB (on task 0 after allocating kdm_complex)
  |   Average:        6.783 MB
  | Largest tracked array allocation so far:
  |   Minimum:        2.214 MB (previous_rho_gradient_diff on task 0)
  |   Maximum:        2.214 MB (previous_rho_gradient_diff on task 0)
  |   Average:        2.214 MB
  Note:  These values currently only include a subset of arrays which are explicitly tracked.
  The "true" memory usage will be greater.
------------------------------------------------------------

  Energy and forces in a compact form:
  | Total energy uncorrected      :         -0.202880799948282E+03 eV
  | Total energy corrected        :         -0.202880799948282E+03 eV  <-- do not rely on this value for anything but (periodic) metals
  | Electronic free energy        :         -0.202880799948282E+03 eV

  ------------------------------------ 
  Start decomposition of the XC Energy 
  ------------------------------------ 
  X and C from original XC functional choice 
  Hartree-Fock Energy :          0.000000000 Ha              0.000000000 eV
  X Energy            :         -1.763891990 Ha            -47.997943143 eV
  C Energy            :         -0.051916463 Ha             -1.412718835 eV
  XC Energy w/o HF    :         -1.815808452 Ha            -49.410661979 eV
  Total XC Energy     :         -1.815808452 Ha            -49.410661979 eV
  ------------------------------------ 
  LDA X and C from self-consistent density 
  X Energy LDA        :         -1.543967070 Ha            -42.013481600 eV
  C Energy LDA        :         -0.151851330 Ha             -4.132084927 eV
  ------------------------------------ 
  End decomposition of the XC Energy 
  ------------------------------------ 

------------------------------------------------------------
------------------------------------------------------------
  Memory usage across processes on interface_librpa_ext entry
  Partial memory accounting:
  | Current value for overall tracked memory usage:
  |   Minimum:        6.738 MB (on task 0)
  |   Maximum:        6.738 MB (on task 0)
  |   Average:        6.738 MB
  | Peak value for overall tracked memory usage:
  |   Minimum:        6.783 MB (on task 0 after allocating kdm_complex)
  |   Maximum:        6.783 MB (on task 0 after allocating kdm_complex)
  |   Average:        6.783 MB
  | Largest tracked array allocation so far:
  |   Minimum:        2.214 MB (previous_rho_gradient_diff on task 0)
  |   Maximum:        2.214 MB (previous_rho_gradient_diff on task 0)
  |   Average:        2.214 MB
  Note:  These values currently only include a subset of arrays which are explicitly tracked.
  The "true" memory usage will be greater.
          Checking for symmetries
  Found symmetry 1.00 0.00 0.00  0.00 1.00 0.00  0.00 0.00 1.00  around 0.00 0.00 0.00
  Found symmetry 1.00 0.00 0.00  0.00 1.00 0.00  0.00 0.00-1.00  around 0.00 0.00 0.00
  Found symmetry 1.00 0.00 0.00  0.00-1.00 0.00  0.00 0.00 1.00  around 0.00 0.00 0.00
  Found symmetry 1.00 0.00 0.00  0.00-1.00 0.00  0.00 0.00-1.00  around 0.00 0.00 0.00
  Found symmetry-1.00 0.00 0.00  0.00 1.00 0.00  0.00 0.00 1.00  around 0.00 0.00 0.00
  Found symmetry-1.00 0.00 0.00  0.00 1.00 0.00  0.00 0.00-1.00  around 0.00 0.00 0.00
  Found symmetry-1.00 0.00 0.00  0.00-1.00 0.00  0.00 0.00 1.00  around 0.00 0.00 0.00
  Found symmetry-1.00 0.00 0.00  0.00-1.00 0.00  0.00 0.00-1.00  around 0.00 0.00 0.00
  Found symmetry 0.00 0.00 1.00  1.00 0.00 0.00  0.00 1.00 0.00  around 0.00 0.00 0.00
  Found symmetry 0.00 0.00-1.00  1.00 0.00 0.00  0.00 1.00 0.00  around 0.00 0.00 0.00
  Found symmetry 0.00 0.00 1.00  1.00 0.00 0.00  0.00-1.00 0.00  around 0.00 0.00 0.00
  Found symmetry 0.00 0.00-1.00  1.00 0.00 0.00  0.00-1.00 0.00  around 0.00 0.00 0.00
  Found symmetry 0.00 0.00 1.00 -1.00 0.00 0.00  0.00 1.00 0.00  around 0.00 0.00 0.00
  Found symmetry 0.00 0.00-1.00 -1.00 0.00 0.00  0.00 1.00 0.00  around 0.00 0.00 0.00
  Found symmetry 0.00 0.00 1.00 -1.00 0.00 0.00  0.00-1.00 0.00  around 0.00 0.00 0.00
  Found symmetry 0.00 0.00-1.00 -1.00 0.00 0.00  0.00-1.00 0.00  around 0.00 0.00 0.00
  Found symmetry 0.00 1.00 0.00  0.00 0.00 1.00  1.00 0.00 0.00  around 0.00 0.00 0.00
  Found symmetry 0.00 1.00 0.00  0.00 0.00-1.00  1.00 0.00 0.00  around 0.00 0.00 0.00
  Found symmetry 0.00-1.00 0.00  0.00 0.00 1.00  1.00 0.00 0.00  around 0.00 0.00 0.00
  Found symmetry 0.00-1.00 0.00  0.00 0.00-1.00  1.00 0.00 0.00  around 0.00 0.00 0.00
  Found symmetry 0.00 1.00 0.00  0.00 0.00 1.00 -1.00 0.00 0.00  around 0.00 0.00 0.00
  Found symmetry 0.00 1.00 0.00  0.00 0.00-1.00 -1.00 0.00 0.00  around 0.00 0.00 0.00
  Found symmetry 0.00-1.00 0.00  0.00 0.00 1.00 -1.00 0.00 0.00  around 0.00 0.00 0.00
  Found symmetry 0.00-1.00 0.00  0.00 0.00-1.00 -1.00 0.00 0.00  around 0.00 0.00 0.00
  Found symmetry 0.00 1.00 0.00  1.00 0.00 0.00  0.00 0.00 1.00  around 0.00 0.00 0.00
  Found symmetry 0.00 1.00 0.00  1.00 0.00 0.00  0.00 0.00-1.00  around 0.00 0.00 0.00
  Found symmetry 0.00-1.00 0.00  1.00 0.00 0.00  0.00 0.00 1.00  around 0.00 0.00 0.00
  Found symmetry 0.00-1.00 0.00  1.00 0.00 0.00  0.00 0.00-1.00  around 0.00 0.00 0.00
  Found symmetry 0.00 1.00 0.00 -1.00 0.00 0.00  0.00 0.00 1.00  around 0.00 0.00 0.00
  Found symmetry 0.00 1.00 0.00 -1.00 0.00 0.00  0.00 0.00-1.00  around 0.00 0.00 0.00
  Found symmetry 0.00-1.00 0.00 -1.00 0.00 0.00  0.00 0.00 1.00  around 0.00 0.00 0.00
[...]
  | 3-center combinations                       :        0.001 s           0.000 s
  | Overal 3-center time                        :        0.007 s           0.008 s
  | LVL initialization                          :        0.008 s           0.008 s
  | Whole LVL-triples                           :        0.008 s           0.008 s

  Number of nodes, tasks per node     1     1
  Number of instances:    1
  -----------------------------------------------------
  Dividing atoms among tasks for exact exchange energy:
  Atom:     1 Weight:   450.00

  Average weight per task:   450.00

  Number of "big" (above average) atoms  :     0
  Number of "small" (below average) atoms:     1

  All atoms have below average work per task
  No atom will be divided among tasks, atoms will be sorted to get best load distribution

  Atom division among tasks:
  Atom     1: (initial) task:     0, # of tasks:     1

  -----------------------------------------------------
  Task      0: my_n_atoms2:      1 my_atom_list:      1
  Task      0: my_n_atom_pairs:      1
  Transferring Coulomb matrix to final data layout
  Coulomb matrix communicaton time [s]    0.00
  Max. memory per node for ovlp3fn matrices:        0.000 GB
  Total memory for ovlp3fn matrices:        0.000 GB
  --- Done getting norm of OVLP3FN, time:        0.000
  Total memory for ovlp3fn matrices:        0.000 GB
  --- time for get_ovlp3fn:        0.000
  Max. memory consumption per node for Hartree Fock matrix [GB]      0.00
  Blocksize for Fock matrix computation:     1
  Max. memory consumption per node for dm_cols [GB]:      0.00
  Max. memory consumption per node for fock_matrix [GB]:      0.00
  Calculating non-local Hartree-Fock exchange by two-center RI (RI-LVL).
  screening_threshold (crit_val) =  0.000000100000
  Max. allocated memory per node for ovlp3fn_rcv [GB]:      0.00
  Max. allocated memory per node for fock_matrix_row [GB]:      0.00
  Max. memory consumption per node for m_ovlp_fact11 [GB]:      0.00
  Max. memory consumption per node for d_aux_mem [GB]:      0.00
  Max. memory consumption per node for dm_x_o3fn_aux [GB]:      0.00
  Max. allocated memory per node for tmp1/tmp2 [GB]:      0.00
   final impselect vector           4           2           2           1
   Time for autotuning:    3.0400000014196848E-004
  Exact exchange progress report - outermost block loop i_block: 1 ..       5
  |        1         2         3         4         5  
 Total ovlp3fn data transfer [GB]   1.2960000049133669E-005
  Average sparsity of tmp1/2 0.50000000
  Average sparsity of fock_matrix_row 0.60000002
  Full exact exchange energy:      48.537131148283 eV.
  Detailed communication and barrier times:
  | Comm    0:        0.000       0.000       0.000       0.000       0.000       0.000       0.000       0.000       0.000       0.000
  | Imbalance    0:        0.000       0.000       0.000       0.000       0.000       0.000       0.000       0.000       0.000       0.000
  Times            DM_x_o3fn   CM_prod_1   CM_prod_2   tmp2_prod        Sync   Imbalance       Other  Total calc
  | Times    0:        0.000       0.000       0.000       0.000       0.000       0.000       0.002       0.002
  | Times  sum:        0.000       0.000       0.000       0.000       0.000       0.000       0.002       0.002

  Decomposition of Other based on code block (only on MPI task 0):
  Times             Block #1    Block #2    Block #3    Block #4    Block #5    Block #6    Block #7    Block #8
  | Times    0:        0.001       0.000       0.000       0.000       0.000       0.000       0.000       0.000

  Times             Block #9   Block #10   Block #11   Block #12   Block #13   Block #14   Block #15   Block #16
  | Times    0:        0.000       0.000       0.000       0.000       0.000       0.000       0.000       0.000

  Times            Block Sum    Expected
  | Times    0:        0.002       0.002

  ------------------------------------------------------------------

  Post-SCF correlation calculation starts ...

 communicator split irkq, row, col:            1           1           1
 reso: n_basbas,n_basis,n_states          18           5           5
 reso: n_basis_soc,n_saved_states_soc           0           0
 reso: n_k_points,n_irk_points,max_n_basbas_sp           1           1          18
 reso: max_n_basis_sp,n_cells,n_full_freq           5           9          16
  Number of angular grids for average inverse dielectric matrix:     5810
  vol_gamma_numeric/vol_gamma:     0.29469514E-03    0.29405799E-03
  Angular quadrature accuracy for volume:         1.00216673 (should be close to 1)

  Start calculating macroscopic dielectric tensor for periodic GW ...
  Wing vector (multiplication of RI coefficients and moment matrix) not requested, skip
  Calculating real-space p_x matrix elements...
  Integrating real-space momentum matrix: batch-based integration.
  Time summed over all CPUs for integration: real work        0.003 s, elapsed        0.003 s

  Calculating real-space p_y matrix elements...
  Integrating real-space momentum matrix: batch-based integration.
  Time summed over all CPUs for integration: real work        0.002 s, elapsed        0.002 s

  Calculating real-space p_z matrix elements...
  Integrating real-space momentum matrix: batch-based integration.
  Time summed over all CPUs for integration: real work        0.002 s, elapsed        0.002 s

  Done preparing real-space moment matrix
  Finished head tensor calculation for periodic GW
  Integrating local/semilocal matrix: batch-based integration.
  Time summed over all CPUs for integration: real work        0.004 s, elapsed        0.004 s

------------------------------------------------------------------------------
  Start to calculate DFT xc contribution for each single-particle level ...
  | Storage requirements for basis-basbas products (processor-local):
  |   Species Li: n_prodsfn:    28; storage:        0.88 MiB.


  Finished with initialization of triples (Coulomb norm) ...
  Preparing TB like auxiliary 2-center Coulomb matrix
  SBT integration errors (all should be 'small'):
  large logFT aliasing -> increase N/lnrange
  large SBT aliasing -> decrease lnk0 & increase lnk0+lnrange
  large SBT ringing -> decrease lnr0 & increase lnr0+lnrange
  |            El't  L: logFT-al.   small-k   large-k   small-r   large-r
  | Need to store    47 splines of    13 points taking          8 KiB.
  | Spline reduction from  4096 to    13 points by (cutting and)     1 x coarsening gives error:  0.00E+00

  Finished with initialization of Coulomb interaction matrix ...

  Compute and write real-space triple LVL expansion coefficents in real space for LibRPA ...
                     ap_begin       ap_end   cell_begin     cell_end   my_comm_ap size_comm_ap myid_comm_ap
  Task         0            1            1            1            9  -1006632940            1            0
  Distributed                    9 (atom pair,cell) tasks
Non-zero C of all Cs exported by task     0 :        9 /        9

  Finished with initialization of the periodic LVL triple coefficients ...
  CPU/Clock time:       0.073       0.078

  Atomic logSBT for LVL-triples                :  max(cpu_time)    wall_clock(cpu1)
  | Multiplication with kernel                  :        0.000 s           0.000 s
  | Main matrix multiplication                  :        0.001 s           0.002 s
  | Analytic angular integration                :        0.001 s           0.001 s
  | Kernel construction                         :        0.000 s           0.000 s
  | Overall 2-center overlap time               :        0.003 s           0.003 s
  | 3-center preparation multiplications        :        0.000 s           0.000 s
  | 3-center preparation SBTs                   :        0.007 s           0.008 s
  | 3-center combinations                       :        0.003 s           0.003 s
  | Overal 3-center time                        :        0.010 s           0.011 s
  | LVL initialization                          :        0.002 s           0.001 s
  | Whole LVL-triples                           :        0.002 s           0.001 s

  Atomic logSBT for 2-center Coulomb matrix    :  max(cpu_time)    wall_clock(cpu1)
  | TB initialization                           :        0.009 s           0.010 s
  | TB usage                                    :        0.000 s           0.000 s

  Calculating cut-Coulomb interaction matrix ...
  Preparing TB like auxiliary 2-center cutCoul matrix
  SBT integration errors (all should be 'small'):
  large logFT aliasing -> increase N/lnrange
  large SBT aliasing -> decrease lnk0 & increase lnk0+lnrange
  large SBT ringing -> decrease lnr0 & increase lnr0+lnrange
  |            El't  L: logFT-al.   small-k   large-k   small-r   large-r
  Initializing cut Coulomb operator.
  | Cut [erfc(-/+1)/2] from   22.8965 A to   27.2967 A within   15 sbt_grid points.

  | Need to store    47 splines of     7 points taking          8 KiB.
  | Spline reduction from  4096 to     7 points by (cutting and)     1 x coarsening gives error:  0.00E+00
  | Maximum value outside interaction range:  7.22E-16
  Calculating the Coulomb matrix in reciprocal space ...
  Atomic logSBT for 2-center cutCoul matrix    :  max(cpu_time)    wall_clock(cpu1)
  | TB initialization                           :        0.010 s           0.010 s
  | TB usage                                    :        0.000 s           0.000 s

  Atomic logSBT for 2-center cutCoul matrix    :  max(cpu_time)    wall_clock(cpu1)
  | TB initialization                           :        0.010 s           0.010 s
  | TB usage                                    :        0.000 s           0.000 s

  Preparing TB like auxiliary 2-center Coulomb matrix
  SBT integration errors (all should be 'small'):
  large logFT aliasing -> increase N/lnrange
  large SBT aliasing -> decrease lnk0 & increase lnk0+lnrange
  large SBT ringing -> decrease lnr0 & increase lnr0+lnrange
  |            El't  L: logFT-al.   small-k   large-k   small-r   large-r
  | Need to store    47 splines of    13 points taking          8 KiB.
  | Spline reduction from  4096 to    13 points by (cutting and)     1 x coarsening gives error:  0.00E+00
  | Gaussian spline reduction from  4096 to    13 points by (cutting and)     1 x coarsening gives error:  0.00E+00
  | Maximum value outside interaction range:  1.15E-08
  Calculating singularity lifting chi
  | Gamma:  1.00E+00; chi:   2014.7318241787911575
  | Gamma:  5.00E-01; chi:   2015.2318241788061641; extra:   2015.7318241788211708
  | Gamma:  2.50E-01; chi:   2015.4818241787879742; extra:   2015.7318241787697843
  | Using chi:   2015.7318241787697843; last diff: -5.14E-11
  Calculating the Coulomb matrix in reciprocal space ...
EXCLUDING GAMMA-POINT IN COULOMB POTENTIAL !!!
NOT EXCLUDING GAMMA-POINT IN COULOMB POTENTIAL !!!
NOT EXCLUDING GAMMA-POINT IN COULOMB POTENTIAL !!!
  Atomic logSBT for 2-center Coulomb matrix    :  max(cpu_time)    wall_clock(cpu1)
  | TB initialization                           :        0.009 s           0.009 s
  | TB usage                                    :        0.000 s           0.000 s


------------------------------------------------------------------------------
  Final output of selected total energy values:

  The following output summarizes some interesting total energy values
  at the end of a run (AFTER all relaxation, molecular dynamics, etc.).

  | Total energy of the DFT / Hartree-Fock s.c.f. calculation      :           -202.880799948 eV
  | Final zero-broadening corrected energy (caution - metals only) :           -202.880799948 eV
  | For reference only, the value of 1 Hartree used in FHI-aims is :             27.211384500 eV
  | For reference only, the overall average (free atom contribution
  | + realspace contribution) of the electrostatic potential after
  | s.c.f. convergence is                                          :             -0.000968276 eV

  Before relying on these values, please be sure to understand exactly which
  total energy value is referred to by a given number. Different objects may
  all carry the same name 'total energy'. Definitions:

  Total energy of the DFT / Hartree-Fock s.c.f. calculation:
  | Note that this energy does not include ANY quantities calculated after the
  | s.c.f. cycle, in particular not ANY RPA, MP2, etc. many-body perturbation terms.

  Final zero-broadening corrected energy:
  | For metallic systems only, a broadening of the occupation numbers at the Fermi
  | level can be extrapolated back to zero broadening by an electron-gas inspired
  | formula. For all systems that are not real metals, this value can be
  | meaningless and should be avoided.

------------------------------------------------------------------------------
  Methods described in the following list of references were used in this FHI-aims run.
  If you publish the results, please make sure to cite these reference if they apply.
  FHI-aims is an academic code, and for our developers (often, Ph.D. students
  and postdocs), scientific credit in the community is essential.
  Thank you for helping us!

  For any use of FHI-aims, please cite:

    Volker Blum, Ralf Gehrke, Felix Hanke, Paula Havu, Ville Havu,
    Xinguo Ren, Karsten Reuter, and Matthias Scheffler
    'Ab initio molecular simulations with numeric atom-centered orbitals'
    Computer Physics Communications 180, 2175-2196 (2009)
    http://doi.org/10.1016/j.cpc.2009.06.022


  For Hartree-Fock, hybrid functionals, or many-body perturbation theory used in your run, please cite:

    Xinguo Ren, Patrick Rinke, Volker Blum, Juergen Wieferink, Alex Tkatchenko,
    Andrea Sanfilippo, Karsten Reuter, and Matthias Scheffler,
    'Resolution-of-identity approach to Hartree-Fock, hybrid density functionals,
    RPA, MP2, and GW with numeric atom-centered orbital basis functions'
    New Journal of Physics 14, 053020 (2012).
    http://doi.org/10.1088/1367-2630/14/5/053020


  The provided symmetry information was generated with SPGlib:

    Atsushi Togo, Yusuke Seto, Dimitar Pashov
    SPGlib 1.7.3 obtained from http://spglib.sourceforge.net
    Licence: New BSD license
    Copyright (C) 2008 Atsushi Togo


  The ELSI infrastructure was used in your run to solve the Kohn-Sham electronic structure.
  Please check out https://wordpress.elsi-interchange.org to learn more.
  If scalability is important for your project, please acknowledge ELSI by citing:

    V. W-z. Yu, F. Corsetti, A. Garcia, W. P. Huhn, M. Jacquelin, W. Jia,
    B. Lange, L. Lin, J. Lu, W. Mi, A. Seifitokaldani, A. Vazquez-Mayagoitia,
    C. Yang, H. Yang, and V. Blum
    'ELSI: A unified software interface for Kohn-Sham electronic structure solvers'
    Computer Physics Communications 222, 267-285 (2018).
    http://doi.org/10.1016/j.cpc.2017.09.007


  For the real-space grid partitioning and parallelization used in this calculation, please cite:

    Ville Havu, Volker Blum, Paula Havu, and Matthias Scheffler,
    'Efficient O(N) integration for all-electron electronic structure calculation'
    'using numerically tabulated basis functions'
    Journal of Computational Physics 228, 8367-8379 (2009).
    http://doi.org/10.1016/j.jcp.2009.08.008


  The high-level electronic structure method used in your calculation
  employed our efficient localized resolution of identity for the Coulomb operator.
  Some calculations, especially large-scale hybrid density functional theory,
  are only possible thanks to this development. For this feature, please cite:

    Arvid Ihrig, Juergen Wieferink, Igor Ying Zhang, Matti Ropo, Xinguo Ren,
    Patrick Rinke, Matthias Scheffler, and Volker Blum,
    'Accurate localized resolution of identity approach for linear-scaling
    hybrid density functionals and for many-body perturbation theory'
    New Journal of Physics 117, 093020 (2015).
    http://doi.org/10.1088/1367-2630/17/9/093020

  Of course, there are many other important community references, e.g., those cited in the
  above references. Our list is limited to references that describe implementations in the
  FHI-aims code. The reason is purely practical (length of this list) - please credit others as well.
------------------------------------------------------------
Warnings summary:

At least    1 warnings were raised during execution.

------------------------------------------------------------
          Leaving FHI-aims.
          Date     :  20250519, Time     :  164538.056

          Computational steps:
          | Number of self-consistency cycles          :            5
          | Number of SCF (re)initializations          :            1

          Detailed time accounting                     :  max(cpu_time)    wall_clock(cpu1)
          | Total time                                  :        4.899 s           5.022 s
          | Preparation time                            :        0.043 s           0.048 s
          | Boundary condition initalization            :        0.029 s           0.032 s
          | Grid partitioning                           :        0.005 s           0.006 s
          | Preloading free-atom quantities on grid     :        0.160 s           0.167 s
          | Free-atom superposition energy              :        0.002 s           0.002 s
          | Total time for integrations                 :        0.028 s           0.032 s
          | Product basis setup: Total time             :        0.000 s           0.000 s
          | Product basis: | 2-center integrations     :(       0.000 s)  (       0.000 s)
          | Product basis: | LVL 3-center & coefficient:(       0.000 s)  (       0.000 s)
          | Initialization for periodic correlated calc :        0.073 s           0.078 s
          | Transforming LVL triples to recip. space    :        0.000 s           0.000 s
          | The exact-exchange part of GW calc.         :        3.739 s           3.795 s
          | Total time for polarizability calc.         :        0.000 s           0.000 s
          | Total time for polarizability of k space    :        0.000 s           0.000 s
          | Total time for head/wing terms for PBC GW   :        0.008 s           0.007 s
          | Total time for GW self-energy (regular k) c :        0.000 s           0.000 s
          | Aanalytic contiuation time                  :        0.000 s           0.000 s
          | Total time for solution of K.-S. equations  :        0.002 s           0.003 s
          | Total time for density update               :        0.023 s           0.024 s
          | Total time for mixing                       :        0.002 s           0.003 s
          | Total time for Hartree multipole update     :        0.002 s           0.002 s
          | Total time for Hartree multipole sum        :        0.932 s           0.952 s
          | Total time for total energy evaluation      :        0.000 s           0.001 s
          | Total time for scaled ZORA corrections      :        0.000 s           0.000 s

          Partial memory accounting:
          | Residual value for overall tracked memory usage across tasks:     0.000000 MB (should be 0.000000 MB)
          | Peak values for overall tracked memory usage:
          |   Minimum:        7.138 MB (on task 0 after allocating q_gamma)
          |   Maximum:        7.138 MB (on task 0 after allocating q_gamma)
          |   Average:        7.138 MB
          | Largest tracked array allocation:
          |   Minimum:        2.214 MB (previous_rho_gradient_diff on task 0)
          |   Maximum:        2.214 MB (previous_rho_gradient_diff on task 0)
          |   Average:        2.214 MB
          Note:  These values currently only include a subset of arrays which are explicitly tracked.
          The "true" memory usage will be greater.

          Have a nice day.
------------------------------------------------------------
