------------------------------------------------------------
          Invoking FHI-aims ...

          When using FHI-aims, please cite the following reference:

            Volker Blum, Ralf Gehrke, Felix Hanke, Paula Havu,
            Ville Havu, Xinguo Ren, Karsten Reuter, and Matthias Scheffler,
            'Ab Initio Molecular Simulations with Numeric Atom-Centered Orbitals',
            Computer Physics Communications 180, 2175-2196 (2009)

          In addition, many other developments in FHI-aims are likely important for
          your particular application. If so, please cite them. A partial list of references
          is written at the end of this file. Thank you for giving credit to the authors
          of these developments.

          For general information about FHI-aims please find us at

            https://fhi-aims.org

          Online tutorials can be found at

            https://fhi-aims-club.gitlab.io/tutorials/tutorials-overview/

          For any questions about FHI-aims, please visit our slack channel at

            https://fhi-aims.slack.com

          and our main development and support site at

            https://aims-git.rz-berlin.mpg.de .

          The latter site, in particular, has a wiki to collect information, as well
          as an issue tracker to log discussions, suggest improvements, and report issues
          or bugs. https://aims-git.rz-berlin.mpg.de is also the main development site
          of the project and all new and updated code versions can be obtained there.
          Please send an email to aims-coordinators@ms1p.org and we will add
          you to these sites. They are for you and everyone is welcome there.

------------------------------------------------------------



  Date     :  20260327, Time     :  101112.407
  Time zero on CPU 1             :   0.539800000000000E-01  s.
  Internal wall clock time zero  :           543838272.407  s.

  FHI-aims created a unique identifier for this run for later identification
  aims_uuid : 07580B82-4CDB-41F3-A92A-018FEA4A8537

  Build configuration of the current instance of FHI-aims
  -------------------------------------------------------
  FHI-aims version      : 260316
  Commit number         : 8d3b6975b
  CMake host system     : Darwin-24.6.0
  CMake version         : 4.3.0
  Fortran compiler      : /opt/homebrew/Cellar/mpich/4.3.0/bin/mpifort (GNU) version 13.4.0
  Fortran compiler flags: -fc=gfortran-13 -O3 -fallow-argument-mismatch -ffree-line-length-none -Wl,-ld_classic -Wl,-lstdc++ -O2 -g
  C compiler            : /opt/homebrew/Cellar/mpich/4.3.0/bin/mpicc (GNU) version 13.4.0
  C compiler flags      : -cc=gcc-13 -O3 -Wl,-ld_classic -O2 -g -DNDEBUG
  C++ compiler          : /opt/homebrew/Cellar/mpich/4.3.0/bin/mpicxx (GNU) version 13.4.0
  C++ compiler flags    : -cxx=g++-13 -O3 -Wl,-ld_classic -O2 -g -DNDEBUG
  HIP compiler          :
  HIP compiler flags    :
  HIP GPU arch          :
  Using MPI
  Using ScaLAPACK
  Using LibXC
  Using i-PI
  Using RLSY
  Using GREENX
  Linking against: /opt/packages/scalapack/2.2.0/gcc-13.4.0-mpich-4.3.0-openblas/libscalapack.a
                   /opt/homebrew/Cellar/openblas/0.3.29/lib/libopenblas.dylib

  Using        1 parallel tasks.
  Task        0 on host taiyi reporting.

  Obtaining array dimensions for all initial allocations:
  
  -----------------------------------------------------------------------
  Parsing control.in (first pass over file, find array dimensions only).
  The contents of control.in will be repeated verbatim below
  unless switched off by setting 'verbatim_writeout .false.' .
  in the first line of control.in .
  -----------------------------------------------------------------------
  
  #%FHI-aims
  
  # General setting
  xc               pbe
  relativistic     atomic_zora scalar
  occupation_type  gaussian 0.001
  basis_threshold  1.e-5
  
  # Use periodic GW
  qpe_calc         gw_expt
  freq_grid_type   minimax
  frequency_points 6
  anacon_type      1
  
  # Kgrids
  k_grid 2 2 2
  
  # # Compute QPE for all states
  # state_upper_limit 100000
  
  output librpa
  ################################################################################
  #
  #  FHI-aims code project
  #  VB, Fritz-Haber Institut, 2009
  #
  #  Suggested "light" defaults for He atom (to be pasted into control.in file)
  #  Be sure to double-check any results obtained with these settings for post-processing,
  #  e.g., with the "tight" defaults and larger basis sets.
  #
  ################################################################################
    species        He
  #     global species definitions
      nucleus             2
      mass                4.002602
  #
      l_hartree           4
  #
      cut_pot             3.5  1.5  1.0
      basis_dep_cutoff    1e-4
  #
      radial_base         27 5.0
      radial_multiplier   1
      angular_grids       specified
        division   0.3349  110
        division   0.4719  194
        division   0.5352  302
  #      division   1.8809  770
  #      outer_grid    770
        outer_grid    302
  ################################################################################
  #
  #  Definition of "minimal" basis
  #
  ################################################################################
  #     valence basis states
      valence      1  s   2.
  #     ion occupancy
      ion_occ      1  s   1.
  ################################################################################
  #
  #  Suggested additional basis functions. For production calculations,
  #  uncomment them one after another (the most important basis functions are
  #  listed first).
  #
  #  Constructed for dimers: 1.25 A, 1.75 A, 2.40 A, 3.25 A
  #
  #  Noble gas symmetric dimers converge quickly in DFT. If you find that
  #  you require a larger basis than tier 2, please contact us - VB, FHI.
  #
  ################################################################################
  #  "First tier" - improvements: -33.45 meV to -13.84 meV
  #     hydro 1 s 0.85
       hydro 2 p 3.5
  #  "Second tier" - improvements: -0.70 meV to -0.05 meV
  #     hydro 3 d 7.2
  #     hydro 3 s 3
  #     hydro 3 p 4.9
  #     hydro 4 f 12
  
  
  -----------------------------------------------------------------------
  Completed first pass over input file control.in .
  -----------------------------------------------------------------------
  
  
  -----------------------------------------------------------------------
  Parsing geometry.in (first pass over file, find array dimensions only).
  The contents of geometry.in will be repeated verbatim below
  unless switched off by setting 'verbatim_writeout .false.' .
  in the first line of geometry.in .
  -----------------------------------------------------------------------
  
  atom_frac     0.000000000     0.000000000     0.000000000 He
  atom_frac     0.500000000     0.500000000     0.500000000 He
  lattice_vector     3.0000     0.0000     0.0000
  lattice_vector     0.0000     3.0000     0.0000
  lattice_vector     0.0000     0.0000     3.0000
  
  -----------------------------------------------------------------------
  Completed first pass over input file geometry.in .
  -----------------------------------------------------------------------
  

  Basic array size parameters:
  | Number of species                 :        1
  | Number of atoms                   :        2
  | Number of lattice vectors         :        3
  | Max. basis fn. angular momentum   :        1
  | Max. atomic/ionic basis occupied n:        1
  | Max. number of basis fn. types    :        2
  | Max. radial fns per species/type  :        1
  | Max. logarithmic grid size        :     1187
  | Max. radial integration grid size :       27
  | Max. angular integration grid size:      302
  | Max. angular grid division number :        8
  | Radial grid for Hartree potential :     1187
  | Number of spin channels           :        1

  Definition of standardized fundamental physical constants in this FHI-aims run:
  | Using the set of values used in FHI-aims up to 2024, which combines values from
  | different CODATA sets - see constants.f90.
  | Use the 'codata' keyword in control.in to change this selection.

  Memory overcommitment: We could not find /proc/sys/vm/overcommit_memory on your system.

------------------------------------------------------------
          Reading file control.in.
------------------------------------------------------------
  XC: Using PBE gradient-corrected functionals.
  Scalar relativistic treatment of kinetic energy: on-site free-atom approximation to ZORA.
  Occupation type: Gaussian broadening, width =   0.100000E-02 eV.
  Threshold for basis singularities:  0.1000E-04
  Periodic GW calculations will be started if finite k point sampling is also set. Please be warned that periodic GW is only at the experimental stage and is still under testing. Be cautious about your results.
  Using minimax frequency grid.
  Number of frequency points used for the self-energy calculation:      6
  Using Pade approximation for analytical continuation.
  Found k-point grid:         2         2         2

  Reading configuration options for species He                  .
  | Found nuclear charge :   2.0000
  | Found atomic mass :    4.0026020000000004      amu
  | Found l_max for Hartree potential  :   4
  | Found cutoff potl. onset [A], width [A], scale factor :    3.50000    1.50000    1.00000
  | Threshold for basis-dependent cutoff potential is   0.100000E-03
  | Found data for basic radial integration grid :    27 points, outermost radius =    5.000 A
  | Found multiplier for basic radial grid :   1
  | Found angular grid specification: user-specified.
  | Specified grid contains     4 separate shells.
  | Check grid settings after all constraints further below.
  | Found free-atom valence shell :  1 s   2.000
  | No ionic wave fns used. Skipping ion_occ.
  | Found hydrogenic basis function :  2 p   3.500
  Species He                  : Missing cutoff potential type.
  Defaulting to exp(1/x)/(1-x)^2 type cutoff potential.
  Species He: No 'logarithmic' tag. Using default grid for free atom:
  | Default logarithmic grid data [bohr] : 0.1000E-03 0.1000E+03 0.1012E+01
  Species He: On-site basis accuracy parameter (for Gram-Schmidt orthonormalisation) not specified.
  Using default value basis_acc =  0.1000000E-03.
  Species He                  : Using default innermost maximum threshold i_radial=  2 for radial functions.
  Species He                  : Default cutoff onset for free atom density etc. : 0.35000000E+01 AA.
  Species He                  : Basic radial grid will be enhanced according to radial_multiplier =   1, to contain    27 grid points.

  Finished reading input file 'control.in'.

------------------------------------------------------------


------------------------------------------------------------
          Reading geometry description geometry.in.
------------------------------------------------------------
  | The smallest distance between any two atoms is         2.59807621 AA.
  | The first atom of this pair is atom number                      1 .
  | The second atom of this pair is atom number                     2 .
  | Wigner-Seitz cell of the first atom image           0     0     0 .
  | (The Wigner-Seitz cell of the second atom is 0 0 0  by definition.)

  Symmetry information by spglib:
  | Precision set to  0.1E-04
  | Number of Operations  : 96
  | Space group           : 229
  | International         : Im-3m
  | Schoenflies           : Oh^9
  Input structure read successfully.
  The structure contains        2 atoms,  and a total of          4.000 electrons.

  Input geometry:
  | Unit cell:
  |        3.00000000        0.00000000        0.00000000
  |        0.00000000        3.00000000        0.00000000
  |        0.00000000        0.00000000        3.00000000
  | Atomic structure:
  |       Atom                x [A]            y [A]            z [A]
  |    1: Species He            0.00000000        0.00000000        0.00000000
  |    2: Species He            1.50000000        1.50000000        1.50000000

  Lattice parameters for 3D lattice (in Angstroms) :     3.000000    3.000000    3.000000
  Angle(s) between unit vectors (in degrees)       :    90.000000   90.000000   90.000000


  Quantities derived from the lattice vectors (in Angstrom^-1):
  | Reciprocal lattice vector 1:  2.094395  0.000000  0.000000
  | Reciprocal lattice vector 2:  0.000000  2.094395  0.000000
  | Reciprocal lattice vector 3:  0.000000  0.000000  2.094395
  | Unit cell volume                               :   0.270000E+02  Angstrom^3

  Fractional coordinates:
                         L1                L2                L3
       atom_frac         0.00000000        0.00000000        0.00000000  He
       atom_frac         0.50000000        0.50000000        0.50000000  He

  Slab Identifier: This seems to be a bulk system.

  Finished reading input file 'geometry.in'.



  Consistency checks for stacksize environment parameter are next.

  | Maximum stacksize for task 0: 63 [Mb]
   *** Stacksize is not set to unlimited. This might cause problems...
  | Current stacksize for task 0: 63 [Mb]

  Consistency checks for the contents of control.in are next.

  MPI_IN_PLACE appears to work with this MPI implementation.
  | Keeping use_mpi_in_place .true. (see manual).
  Explicit treatment of the Coulomb operator is needed, but the RI method is not specified.
  Coulomb operator: Defaulting to 'LVL fast' resolution of identity - RI_type = LVL_fast
  Species He: Using default value for prodbas_acc =   1.000000E-04.
  Species He: Using default value max_l_prodbas =    20.
  Target number of points in a grid batch is not set. Defaulting to  100
  Method for grid partitioning is not set. Defaulting to parallel hash+maxmin partitioning.
  Batch size limit is not set. Defaulting to    200
  By default, will store active basis functions for each batch.
  If in need of memory, prune_basis_once .false. can be used to disable this option.
  communication_type for Hartree potential was not specified.
  Defaulting to calc_hartree .
  Defaulting to Pulay charge density mixer.
  Pulay mixer: Number of relevant iterations not set.
  Defaulting to    8 iterations.
  Pulay mixer: Number of initial linear mixing iterations not set.
  Defaulting to    0 iterations.
  Work space size for distributed Hartree potential not set.
  Defaulting to   0.200000E+03 MB.
  Mixing parameter for charge density mixing has not been set.
  Using default: charge_mix_param =     0.0500.
  The mixing parameter will be adjusted in iteration number     2 of each s.c.f. cycle (i.e., each geometry step).
  Algorithm-dependent basis array size parameters:
  | n_max_pulay                         :        8
  Maximum number of self-consistency iterations not provided.
  Presetting  1000 iterations.
  Presetting      1001 iterations before the initial mixing cycle
  is restarted anyway using the sc_init_iter criterion / keyword.
  Presetting a factor      1.000 between actual scf density residual
  and density convergence criterion sc_accuracy_rho below which sc_init_iter
  takes no effect.
 * No s.c.f. convergence criteria (sc_accuracy_*) were provided in control.in.
 * The run will proceed with a reasonable default guess, but please check whether.
 * the s.c.f. cycles seem to take too much or too little time.
  Calculation of forces was not defined in control.in. No forces will be calculated.
  Geometry relaxation not requested: no relaxation will be performed.
 * Notice: The s.c.f. convergence criterion sc_accuracy_rho was not provided.
 * We used to stop in this case, and ask the user to provide reasonable
 * scf convergence criteria. However, this led some users to employ criteria
 * that led to extremely long run times, e.g., for simple relaxation.
 * We now preset a default value for sc_accuracy_rho if it is not set.
 * You may still wish to check if this setting is too tight or too loose for your needs.
 * Based on n_atoms and forces and force-correction status, FHI-aims chose sc_accuracy_rho =  0.100000E-05 .
  No accuracy limit for integral partition fn. given. Defaulting to  0.1000E-14.
  No threshold value for u(r) in integrations given. Defaulting to  0.1000E-05.
  No accuracy for occupation numbers given. Defaulting to  0.1000E-12.
  No threshold value for occupation numbers given. Defaulting to  0.0000E+00.
  No accuracy for fermi level given. Defaulting to  0.1000E-19.
  Maximum # of iterations to find E_F not set. Defaulting to  200.
  Preferred method for the eigenvalue solver ('KS_method') not specified in 'control.in'.
  Defaulting to serial version LAPACK (via ELSI).
  partition_type (choice of integration weights) for integrals was not specified.
  | Using a version of the partition function of Stratmann and coworkers ('stratmann_sparse').
  | At each grid point, the set of atoms used to build the partition table is smoothly restricted to
  | only those atoms whose free-atom density would be non-zero at that grid point.
  Partitioning for Hartree potential was not defined. Using partition_type for integrals.
  | Adjusted default value of keyword multip_moments_threshold to:       0.10000000E-11
  | This value may affect high angular momentum components of the Hartree potential in periodic systems.
  Using 2025 definition of centers list for evaluation of the Stratmann partition function.
  Spin handling was not defined in control.in. Defaulting to unpolarized case.
  Threshold for auxiliary basis singularities not set.
  Default threshold for auxiliary basis singularities:  0.1000E-04
  Use default threshold for vanishing multipole moments of auxiliary basis:  0.1000E-07
  * Periodic GW calculations will start ......
  * nk > 1 for all reciprocal lattice vectors, finite size correction switched on by default
  * - Head correction switched on, q->0 in direction:   0.577350  0.577350  0.577350
  * - Wing correction switched off
  * Setting default energy window for Kohn-Sham states to calculate QPE to [VBM - 20 eV, CBM + 10 eV].
  Eigen-decomposition algorithm is used to invert dielectric matrix in periodic GW.
  [LibRPA file interface] Arrays for subsequent LibRPA calculation will be written
  [LibRPA file interface] See manual section 'Interface to LibRPA'
  [LibRPA file interface] Will generate output in format for current master branch
  [LibRPA file interface] Large arrays will be written in binary format: triple coefficients (Cs), Coulomb matrices (coulomb_mat, coulomb_cut)
  [LibRPA file interface] Enabled output dielectric functions for periodic GW
  [LibRPA file interface] Enabled output RI coefficients
  [LibRPA file interface] Will attempt to fold real-space RI coefficients to Born-von Karman cells
  [LibRPA file interface] Switch off filtering of real-space RI coefficients for export
  [LibRPA file interface] Enabled output Coulomb matrices
  [LibRPA file interface] Enabled output exchange-correlation potential
  [LibRPA file interface] Enabled output non-local exchange in vxc
  No q(lm)/r^(l+1) cutoff set for long-range Hartree potential.
  | Using default value of  0.100000E-09 .
  | Verify using the multipole_threshold keyword.
  Defaulting to new monopole extrapolation.
  Density update method: automatic selection selected.
  Using density matrix based charge density update.
  Using density matrix based charge density update.
  Using packed matrix style: index .
  Threshold of packed matrixes:  0.000000E+00
** WARNING:
 * This is an experimental version of the periodic GW implemenation.
 * We are still actively working on it to improve the efficiency and reliability.
 * Do not rely on any results you obtained from periodic GW calculation.
** END OF WARNING
  Defaulting to use full k-point grid (no symmetry reduction).
  Charge integration errors on the 3D integration grid will be compensated
  by explicit normalization and distribution of residual charges.
  Use the "compensate_multipole_errors" flag to change this behaviour.
  Default to 1D ("use_logsbt") integrations for auxiliary 2-center integrals.
  Default onset of logarithmic r-grid for SBT is -38.000000000000
  Default onset of logarithmic k-grid for SBT is -25.000000000000
  Default range of logarithmic r- and k-grid for SBT is  45.000000000000
  Default number of logarithmic r- and k-grid for SBT is   4096
  Set 'collect_eigenvectors' to be '.true.' for all serial calculations. This is mandatory.
  Set 'collect_eigenvectors' to be '.true.' for GW/RPA/MP2, SCREX/COHSEX cluster calculations
  Set 'collect_eigenvectors' to be '.true.' for qpe_calc (quasiparticle energy).
  Set 'collect_eigenvectors' to be '.true.' for KS_method lapack_fast and serial.
  Found potential conflicts with setting 'use_local_index' for this calculation. Will not set it.

  Consistency checks for the contents of geometry.in are next.


  Range separation radius for Ewald summation (hartree_convergence_parameter):      3.35291096 bohr.
  Number of empty states per atom not set in control.in .
  | Since you are using a method that relies on the unoccupied spectrum
  | (MP2,GW,RPA et al.), will use the full Hamiltonian size (see below)
  | as the max. possible number of states (occupied plus empty).

  Structure-dependent array size parameters: 
  | Maximum number of distinct radial functions  :        2
  | Maximum number of basis functions            :        8
  | Number of Kohn-Sham states (occupied + empty):        8
------------------------------------------------------------
  Setting Coulomb cut-width to  1.091868692359 * rcut.
  Setting Coulomb cutting radius rcut to  3.000000000000 A.

  Checking k-grid inconsistencies now:
  | k-point density for reciprocal lattice vector 1 is    0.95 nkpts / Angstrom^-1
  | k-point density for reciprocal lattice vector 2 is    0.95 nkpts / Angstrom^-1
  | k-point density for reciprocal lattice vector 3 is    0.95 nkpts / Angstrom^-1

  | Ratio of k-point densities for reciprocal lattice vectors 1 vs 2 is    1.00
  | Ratio of k-point densities for reciprocal lattice vectors 1 vs 3 is    1.00
  | Ratio of k-point densities for reciprocal lattice vectors 2 vs 3 is    1.00

  * The specified k_grid leads to a nearly homogenous k-grid density in non-vacuum directions,
  * and seems sensible.

  | Checks passed.

  Performing system and environment tests:
  | Environment variable OMP_NUM_THREADS correctly set to 1.
  | Checking for ScaLAPACK...
  | Testing pdtran()...
  | All pdtran() tests passed.
  | CPU consistency checks disabled for non-Linux or unknown build system
  

------------------------------------------------------------
          Preparing all fixed parts of the calculation.
------------------------------------------------------------
  Determining machine precision:
     2.2250738585072014E-308
  Setting up grids for atomic and cluster calculations.

  Creating wave function, potential, and density for free atoms.
  Runtime choices for atomic solver:
  | atomic solver xc        : PBE
  | compute density gradient: 1
  | compute kinetic density : F

  Species: He

  List of occupied orbitals and eigenvalues:
    n    l              occ      energy [Ha]    energy [eV]
    1    0           2.0000        -0.579306       -15.7637


  Adding cutoff potential to free-atom effective potential.
  Creating fixed part of basis set: Ionic, confined, hydrogenic.

  He                   hydrogenic:

  List of hydrogenic basis orbitals: 
    n    l      effective z      eigenvalue [eV]  inner max. [A]     outer max. [A]     outer radius [A]   
    2    1         3.500000       -41.6670           0.604588           0.604588           3.737119

  Creating atomic-like basis functions for current effective potential.

  Species He                  :

  List of atomic basis orbitals and eigenvalues:
    n    l      energy [Ha]    energy [eV]    outer radius [A]
    1    0        -0.579306       -15.7637       4.434721

  Assembling full basis from fixed parts.
  | Species He :   atomic orbital   1 s accepted.
  | Species He :    hydro orbital   2 p accepted.

  Basis size parameters after reduction:
  | Total number of radial functions:        2
  | Total number of basis functions :        8

  Per-task memory consumption for arrays in subroutine allocate_ext:
  |           0.608072MB.
  Testing on-site integration grid accuracy.
  |  Species  Function  <phi|h_atom|phi> (log., in eV)  <phi|h_atom|phi> (rad., in eV)
           1        1                -15.7637175986                -15.7637106410
           1        2                 23.5583217195                 23.5583243604

  Preparing densities etc. for the partition functions (integrals / Hartree potential).

  Preparations completed.
  max(cpu_time)          :      0.017 s.
  Wall clock time (cpu1) :      0.017 s.
------------------------------------------------------------

  Initializing index lists of integration centers etc. from given atomic structure:
  Mapping all atomic coordinates to central unit cell.

  Initializing the k-points
  | Number of k-points                             :         8
  The eigenvectors in the calculations are REAL.
  | K-points in task   0:         8
  | Consuming          1 KiB for k_phase_exx.
  | Number of basis functions in the Hamiltonian integrals       :       266
  | Number of basis functions in a single unit cell              :         8
  | Number of centers in hartree potential                       :       834
  | Number of centers in hartree multipole                       :       400
  | Number of centers in electron density summation              :       314
  | Number of centers in basis integrals                         :       338
  | Number of centers in integrals                               :       137
  | Number of centers in hamiltonian                             :       314
  | Number of centers in partition table from touching 0-cell    :       137
  | Number of centers in partition table total                   :       338
  | Consuming         24 KiB for k_phase.
  | Number of super-cells (origin) [n_cells]                     :        1331
  | Number of super-cells (after PM_index) [n_cells]             :         192
  | Number of super-cells in hamiltonian [n_cells_in_hamiltonian]:         192
  | Size of matrix packed + index [n_hamiltonian_matrix_size]    :        3233

------------------------------------------------------------
          Begin self-consistency loop: Initialization.

          Date     :  20260327, Time     :  101112.473
------------------------------------------------------------
  | Estimated reciprocal-space cutoff momentum G_max:         2.80401094 bohr^-1 .
  | Reciprocal lattice points for long-range Hartree potential:      80
  Partitioning the integration grid into batches with parallel hashing+maxmin method.
  | Number of batches:      128
  | Maximal batch size:      94
  | Minimal batch size:      89
  | Average batch size:      91.031
  | Standard deviation of batch sizes:       1.425

  Integration load balanced across     1 MPI tasks.
  Work distribution over tasks is as follows:
  Task     0 has      11652 integration points.
  Initializing partition tables, free-atom densities, potentials, etc. across the integration grid (initialize_grid_storage).
  | initialize_grid_storage: Actual outermost partition radius vs. multipole_radius_free
  | (-- VB: in principle, multipole_radius_free should be larger, hence this output)
  | Species        1: Confinement radius =              4.999999999999999 AA, multipole_radius_free =              5.011396146151729 AA.
  | Species        1: outer_partition_radius set to              5.011396146151729 AA .
  | The sparse table of interatomic distances needs        631.21 kbyte instead of       913.95 kbyte of memory.
  | Net number of integration points:    11652
  | of which are non-zero points    :     9908
  | Numerical average free-atom electrostatic potential    :     -1.56924008 eV
  Renormalizing the initial density to the exact electron count on the 3D integration grid.
  | Initial density: Formal number of electrons (from input files) :       4.0000000000
  | Integrated number of electrons on 3D grid     :       4.0000263504
  | Charge integration error                      :       0.0000263504
  | Normalization factor for density and gradient :       0.9999934124
  Renormalizing the free-atom superposition density to the exact electron count on the 3D integration grid.
  | Formal number of electrons (from input files) :       4.0000000000
  | Integrated number of electrons on 3D grid     :       4.0000263504
  | Charge integration error                      :       0.0000263504
  | Normalization factor for density and gradient :       0.9999934124
  Obtaining max. number of non-zero basis functions in each batch (get_n_compute_maxes).
  | Maximal number of non-zero basis functions:      135 in task     0
  Allocating        0.004 MB for KS_eigenvector
  Integrating Hamiltonian matrix: batch-based integration.
  Time summed over all CPUs for integration: real work        0.051 s, elapsed        0.051 s
  Integrating overlap matrix.
  Time summed over all CPUs for integration: real work        0.028 s, elapsed        0.028 s

  Updating Kohn-Sham eigenvalues and eigenvectors using ELSI and the (modified) LAPACK eigensolver.
  Singularity check in k-point 1, task 0 (analysis for other k-points/tasks may follow below):
  Overlap matrix is not singular
  | Lowest and highest eigenvalues :  0.8074E+00,  0.1238E+01
  Finished singularity check of overlap matrix
  | Time :     0.000 s
  Starting LAPACK eigensolver
  Finished Cholesky decomposition
  | Time :     0.000 s
  Finished transformation to standard eigenproblem
  | Time :     0.000 s
  Finished solving standard eigenproblem
  | Time :     0.000 s
  Finished back-transformation of eigenvectors
  | Time :     0.000 s

  Obtaining occupation numbers and electronic chemical potential using ELSI.
  | Note that, for insulating systems, the printed 'chemical potential' value is not uniquely defined.
  | It can be anywhere in the energy gap, as long as it correctly separates occupied and unoccupied states.
  | In systems with a gap, the physically relevant chemical potential is the VBM or HOMO.

  | Chemical potential (Fermi level):     0.13200805 eV
  Writing Kohn-Sham eigenvalues.
  K-point:       1 at    0.000000    0.000000    0.000000 (in units of recip. lattice)

  State    Occupation    Eigenvalue [Ha]    Eigenvalue [eV]
      1       2.00000          -0.627693          -17.08041
      2       2.00000          -0.551051          -14.99486
      3       0.00000           0.794911           21.63062
      4       0.00000           0.794911           21.63062
      5       0.00000           0.794911           21.63062
      6       0.00000           1.144212           31.13560
      7       0.00000           1.144212           31.13560
      8       0.00000           1.144212           31.13560

  What follows are estimated values for band gap, HOMO, LUMO, etc.
  | They are estimated on a discrete k-point grid and not necessarily exact.
  | For converged numbers, create a DOS and/or band structure plot on a denser k-grid.

  Highest occupied state (VBM) at    -14.99485592 eV (relative to internal zero)
  | Occupation number:      2.00000000
  | K-point:       1 at    0.000000    0.000000    0.000000 (in units of recip. lattice)

  Lowest unoccupied state (CBM) at    15.25887201 eV (relative to internal zero)
  | Occupation number:      0.00000000
  | K-point:       7 at    0.500000    0.500000    0.000000 (in units of recip. lattice)

  The gap value is above 0.2 eV. Unless you are using a very sparse k-point grid,
  this system is most likely an insulator or a semiconductor.
  ESTIMATED overall HOMO-LUMO gap:     30.25372793 eV between HOMO at k-point 1 and LUMO at k-point 7
  | This appears to be an indirect band gap.
  | Smallest direct gap :     30.91714885 eV for k_point 6 at    0.500000    0.000000    0.500000 (in units of recip. lattice)
  Calculating total energy contributions from superposition of free atom densities.

  Total energy components:
  | Sum of eigenvalues            :          -2.31816201 Ha         -63.08039776 eV
  | XC energy correction          :          -2.09585620 Ha         -57.03114885 eV
  | XC potential correction       :           2.68098411 Ha          72.95328957 eV
  | Free-atom electrostatic energy:          -4.05318423 Ha        -110.29275466 eV
  | Hartree energy correction     :          -0.00000000 Ha          -0.00000000 eV
  | Entropy correction            :          -0.00000000 Ha          -0.00000000 eV
  | ---------------------------
  | Total energy                  :          -5.78621833 Ha        -157.45101170 eV
  | Total energy, T -> 0          :          -5.78621833 Ha        -157.45101170 eV  <-- do not rely on this value for anything but (periodic) metals
  | Electronic free energy        :          -5.78621833 Ha        -157.45101170 eV

  Derived energy quantities:
  | Kinetic energy                :           5.71667420 Ha         155.55861982 eV
  | Electrostatic energy          :          -9.40703633 Ha        -255.97848267 eV
  | Energy correction for multipole
  | error in Hartree potential    :           0.00000000 Ha           0.00000000 eV
  | Sum of eigenvalues per atom                           :         -31.54019888 eV
  | Total energy (T->0) per atom                          :         -78.72550585 eV  <-- do not rely on this value for anything but (periodic) metals
  | Electronic free energy per atom                       :         -78.72550585 eV
  Initialize hartree_potential_storage
  Max. number of atoms included in rho_multipole:            2

  End scf initialization - timings             :  max(cpu_time)    wall_clock(cpu1)
  | Time for scf. initialization                :        0.270 s           0.271 s
  | Boundary condition initialization           :        0.040 s           0.040 s
  | Integration                                 :        0.079 s           0.079 s
  | Solution of K.-S. eqns.                     :        0.001 s           0.001 s
  | Grid partitioning                           :        0.017 s           0.017 s
  | Preloading free-atom quantities on grid     :        0.145 s           0.145 s
  | Free-atom superposition energy              :        0.027 s           0.027 s
  | Total energy evaluation                     :        0.000 s           0.000 s

  Partial memory accounting:
  | Current value for overall tracked memory usage:
  |   Minimum:        0.086 MB (on task 0)
  |   Maximum:        0.086 MB (on task 0)
  |   Average:        0.086 MB
  | Peak value for overall tracked memory usage:
  |   Minimum:        0.519 MB (on task 0 after allocating wave)
  |   Maximum:        0.519 MB (on task 0 after allocating wave)
  |   Average:        0.519 MB
  | Largest tracked array allocation so far:
  |   Minimum:        0.267 MB (all_coords on task 0)
  |   Maximum:        0.267 MB (all_coords on task 0)
  |   Average:        0.267 MB
  Note:  These values currently only include a subset of arrays which are explicitly tracked.
  The "true" memory usage will be greater.
------------------------------------------------------------
  Evaluating new KS density using the density matrix
  Evaluating density matrix
  Time summed over all CPUs for getting density from density matrix: real work        0.059 s, elapsed        0.059 s
  Integration grid: deviation in total charge (<rho> - N_e) =  -1.554312E-14

  Time for density update prior                :  max(cpu_time)    wall_clock(cpu1)
  | self-consistency iterative process          :        0.060 s           0.060 s

------------------------------------------------------------
          Begin self-consistency iteration #    1

  Date     :  20260327, Time     :  101112.804
------------------------------------------------------------
  Pulay mixing of updated and previous charge densities.
  Renormalizing the density to the exact electron count on the 3D integration grid.
  | Formal number of electrons (from input files) :       4.0000000000
  | Integrated number of electrons on 3D grid     :       4.0000000000
  | Charge integration error                      :       0.0000000000
  | Normalization factor for density and gradient :       1.0000000000

  Evaluating partitioned Hartree potential by multipole expansion.
  | Original multipole sum: apparent total charge =   0.504397E-13
  | Sum of charges compensated after spline to logarithmic grids =   0.286247E-07
  | Analytical far-field extrapolation by fixed multipoles:
  | Hartree multipole sum: apparent total charge =  -0.000000E+00
  Summing up the Hartree potential.
  Time summed over all CPUs for potential: real work        0.107 s, elapsed        0.107 s
  | RMS charge density error from multipole expansion :   0.175625E-05
  | Average real-space part of the electrostatic potential :      0.00051010 eV

  Integrating Hamiltonian matrix: batch-based integration.
  Time summed over all CPUs for integration: real work        0.049 s, elapsed        0.049 s

  Updating Kohn-Sham eigenvalues and eigenvectors using ELSI and the (modified) LAPACK eigensolver.
  Starting LAPACK eigensolver
  Finished Cholesky decomposition
  | Time :     0.000 s
  Finished transformation to standard eigenproblem
  | Time :     0.000 s
  Finished solving standard eigenproblem
  | Time :     0.000 s
  Finished back-transformation of eigenvectors
  | Time :     0.000 s

  Obtaining occupation numbers and electronic chemical potential using ELSI.
  | Note that, for insulating systems, the printed 'chemical potential' value is not uniquely defined.
  | It can be anywhere in the energy gap, as long as it correctly separates occupied and unoccupied states.
  | In systems with a gap, the physically relevant chemical potential is the VBM or HOMO.

  | Chemical potential (Fermi level):     0.13371691 eV
  Writing Kohn-Sham eigenvalues.
  K-point:       1 at    0.000000    0.000000    0.000000 (in units of recip. lattice)

  State    Occupation    Eigenvalue [Ha]    Eigenvalue [eV]
      1       2.00000          -0.627620          -17.07842
      2       2.00000          -0.550960          -14.99238
      3       0.00000           0.794951           21.63173
      4       0.00000           0.794951           21.63173
      5       0.00000           0.794951           21.63173
      6       0.00000           1.144262           31.13696
      7       0.00000           1.144262           31.13696
      8       0.00000           1.144262           31.13696

  What follows are estimated values for band gap, HOMO, LUMO, etc.
  | They are estimated on a discrete k-point grid and not necessarily exact.
  | For converged numbers, create a DOS and/or band structure plot on a denser k-grid.

  Highest occupied state (VBM) at    -14.99238429 eV (relative to internal zero)
  | Occupation number:      2.00000000
  | K-point:       1 at    0.000000    0.000000    0.000000 (in units of recip. lattice)

  Lowest unoccupied state (CBM) at    15.25981812 eV (relative to internal zero)
  | Occupation number:      0.00000000
  | K-point:       4 at    0.000000    0.500000    0.500000 (in units of recip. lattice)

  The gap value is above 0.2 eV. Unless you are using a very sparse k-point grid,
  this system is most likely an insulator or a semiconductor.
  ESTIMATED overall HOMO-LUMO gap:     30.25220241 eV between HOMO at k-point 1 and LUMO at k-point 4
  | This appears to be an indirect band gap.
  | Smallest direct gap :     30.91576013 eV for k_point 4 at    0.000000    0.500000    0.500000 (in units of recip. lattice)

  Total energy components:
  | Sum of eigenvalues            :          -2.31782362 Ha         -63.07118984 eV
  | XC energy correction          :          -2.09607211 Ha         -57.03702417 eV
  | XC potential correction       :           2.68126429 Ha          72.96091367 eV
  | Free-atom electrostatic energy:          -4.05318423 Ha        -110.29275466 eV
  | Hartree energy correction     :          -0.00040200 Ha          -0.01093884 eV
  | Entropy correction            :          -0.00000000 Ha          -0.00000000 eV
  | ---------------------------
  | Total energy                  :          -5.78621767 Ha        -157.45099384 eV
  | Total energy, T -> 0          :          -5.78621767 Ha        -157.45099384 eV  <-- do not rely on this value for anything but (periodic) metals
  | Electronic free energy        :          -5.78621767 Ha        -157.45099384 eV

  Derived energy quantities:
  | Kinetic energy                :           5.71756002 Ha         155.58272406 eV
  | Electrostatic energy          :          -9.40770558 Ha        -255.99669373 eV
  | Energy correction for multipole
  | error in Hartree potential    :          -0.00000002 Ha          -0.00000045 eV
  | Sum of eigenvalues per atom                           :         -31.53559492 eV
  | Total energy (T->0) per atom                          :         -78.72549692 eV  <-- do not rely on this value for anything but (periodic) metals
  | Electronic free energy per atom                       :         -78.72549692 eV
  Evaluating new KS density using the density matrix
  Evaluating density matrix
  Time summed over all CPUs for getting density from density matrix: real work        0.060 s, elapsed        0.060 s
  Integration grid: deviation in total charge (<rho> - N_e) =  -2.042810E-14

  Self-consistency convergence accuracy:
  | Change of charge density      :  0.3066E-02
  | Change of unmixed KS density  :  0.1235E+01
  | Change of sum of eigenvalues  :  0.9208E-02 eV
  | Change of total energy        :  0.1786E-04 eV


------------------------------------------------------------
  End self-consistency iteration #     1       :  max(cpu_time)    wall_clock(cpu1)
  | Time for this iteration                     :        0.218 s           0.219 s
  | Charge density update                       :        0.060 s           0.060 s
  | Density mixing                              :        0.000 s           0.000 s
  | Hartree multipole update                    :        0.000 s           0.001 s
  | Hartree multipole summation                 :        0.108 s           0.108 s
  | Integration                                 :        0.049 s           0.049 s
  | Solution of K.-S. eqns.                     :        0.000 s           0.001 s
  | Total energy evaluation                     :        0.000 s           0.000 s

  Partial memory accounting:
  | Current value for overall tracked memory usage:
  |   Minimum:        6.576 MB (on task 0)
  |   Maximum:        6.576 MB (on task 0)
  |   Average:        6.576 MB
  | Peak value for overall tracked memory usage:
  |   Minimum:        7.295 MB (on task 0 after allocating gradient_basis_wave)
  |   Maximum:        7.295 MB (on task 0 after allocating gradient_basis_wave)
  |   Average:        7.295 MB
  | Largest tracked array allocation so far:
  |   Minimum:        2.134 MB (previous_rho_gradient_diff on task 0)
  |   Maximum:        2.134 MB (previous_rho_gradient_diff on task 0)
  |   Average:        2.134 MB
  Note:  These values currently only include a subset of arrays which are explicitly tracked.
  The "true" memory usage will be greater.
------------------------------------------------------------

------------------------------------------------------------
          Begin self-consistency iteration #    2

  Date     :  20260327, Time     :  101113.023
------------------------------------------------------------
  Pulay mixing of updated and previous charge densities.
  Renormalizing the density to the exact electron count on the 3D integration grid.
  | Formal number of electrons (from input files) :       4.0000000000
  | Integrated number of electrons on 3D grid     :       4.0000000000
  | Charge integration error                      :      -0.0000000000
  | Normalization factor for density and gradient :       1.0000000000

  Evaluating partitioned Hartree potential by multipole expansion.
  | Original multipole sum: apparent total charge =  -0.724448E-13
  | Sum of charges compensated after spline to logarithmic grids =   0.101124E-05
  | Analytical far-field extrapolation by fixed multipoles:
  | Hartree multipole sum: apparent total charge =  -0.000000E+00
  Summing up the Hartree potential.
  Time summed over all CPUs for potential: real work        0.109 s, elapsed        0.109 s
  | RMS charge density error from multipole expansion :   0.348512E-04
  | Average real-space part of the electrostatic potential :      0.01008799 eV

  Integrating Hamiltonian matrix: batch-based integration.
  Time summed over all CPUs for integration: real work        0.050 s, elapsed        0.050 s

  Updating Kohn-Sham eigenvalues and eigenvectors using ELSI and the (modified) LAPACK eigensolver.
  Starting LAPACK eigensolver
  Finished Cholesky decomposition
  | Time :     0.000 s
  Finished transformation to standard eigenproblem
  | Time :     0.000 s
  Finished solving standard eigenproblem
  | Time :     0.000 s
  Finished back-transformation of eigenvectors
  | Time :     0.000 s

  Obtaining occupation numbers and electronic chemical potential using ELSI.
  | Note that, for insulating systems, the printed 'chemical potential' value is not uniquely defined.
  | It can be anywhere in the energy gap, as long as it correctly separates occupied and unoccupied states.
  | In systems with a gap, the physically relevant chemical potential is the VBM or HOMO.

  | Chemical potential (Fermi level):     0.16589383 eV
  What follows are estimated values for band gap, HOMO, LUMO, etc.
  | They are estimated on a discrete k-point grid and not necessarily exact.
  | For converged numbers, create a DOS and/or band structure plot on a denser k-grid.

  Highest occupied state (VBM) at    -14.94580091 eV (relative to internal zero)
  | Occupation number:      2.00000000
  | K-point:       1 at    0.000000    0.000000    0.000000 (in units of recip. lattice)

  Lowest unoccupied state (CBM) at    15.27758856 eV (relative to internal zero)
  | Occupation number:      0.00000000
  | K-point:       6 at    0.500000    0.000000    0.500000 (in units of recip. lattice)

  The gap value is above 0.2 eV. Unless you are using a very sparse k-point grid,
  this system is most likely an insulator or a semiconductor.
  ESTIMATED overall HOMO-LUMO gap:     30.22338947 eV between HOMO at k-point 1 and LUMO at k-point 6
  | This appears to be an indirect band gap.
  | Smallest direct gap :     30.88953193 eV for k_point 6 at    0.500000    0.000000    0.500000 (in units of recip. lattice)

  Checking to see if s.c.f. parameters should be adjusted.
  The system likely has a gap. Increased the default Pulay mixing parameter (charge_mix_param). Value:   0.200000 .

  Total energy components:
  | Sum of eigenvalues            :          -2.31144747 Ha         -62.89768586 eV
  | XC energy correction          :          -2.10014277 Ha         -57.14779255 eV
  | XC potential correction       :           2.68654768 Ha          73.10468197 eV
  | Free-atom electrostatic energy:          -4.05318423 Ha        -110.29275466 eV
  | Hartree energy correction     :          -0.00798458 Ha          -0.21727152 eV
  | Entropy correction            :          -0.00000000 Ha          -0.00000000 eV
  | ---------------------------
  | Total energy                  :          -5.78621138 Ha        -157.45082263 eV
  | Total energy, T -> 0          :          -5.78621138 Ha        -157.45082263 eV  <-- do not rely on this value for anything but (periodic) metals
  | Electronic free energy        :          -5.78621138 Ha        -157.45082263 eV

  Derived energy quantities:
  | Kinetic energy                :           5.73423767 Ha         156.03654599 eV
  | Electrostatic energy          :          -9.42030627 Ha        -256.33957607 eV
  | Energy correction for multipole
  | error in Hartree potential    :          -0.00000032 Ha          -0.00000865 eV
  | Sum of eigenvalues per atom                           :         -31.44884293 eV
  | Total energy (T->0) per atom                          :         -78.72541131 eV  <-- do not rely on this value for anything but (periodic) metals
  | Electronic free energy per atom                       :         -78.72541131 eV
  Evaluating new KS density using the density matrix
  Evaluating density matrix
  Time summed over all CPUs for getting density from density matrix: real work        0.060 s, elapsed        0.060 s
  Integration grid: deviation in total charge (<rho> - N_e) =  -1.598721E-14

  Self-consistency convergence accuracy:
  | Change of charge density      :  0.2912E-02
  | Change of unmixed KS density  :  0.1222E-05
  | Change of sum of eigenvalues  :  0.1735E+00 eV
  | Change of total energy        :  0.1712E-03 eV


------------------------------------------------------------
  End self-consistency iteration #     2       :  max(cpu_time)    wall_clock(cpu1)
  | Time for this iteration                     :        0.221 s           0.222 s
  | Charge density update                       :        0.060 s           0.061 s
  | Density mixing                              :        0.000 s           0.000 s
  | Hartree multipole update                    :        0.000 s           0.001 s
  | Hartree multipole summation                 :        0.109 s           0.109 s
  | Integration                                 :        0.050 s           0.051 s
  | Solution of K.-S. eqns.                     :        0.001 s           0.000 s
  | Total energy evaluation                     :        0.000 s           0.000 s

  Partial memory accounting:
  | Current value for overall tracked memory usage:
  |   Minimum:        6.577 MB (on task 0)
  |   Maximum:        6.577 MB (on task 0)
  |   Average:        6.577 MB
  | Peak value for overall tracked memory usage:
  |   Minimum:        7.297 MB (on task 0 after allocating gradient_basis_wave)
  |   Maximum:        7.297 MB (on task 0 after allocating gradient_basis_wave)
  |   Average:        7.297 MB
  | Largest tracked array allocation so far:
  |   Minimum:        2.134 MB (previous_rho_gradient_diff on task 0)
  |   Maximum:        2.134 MB (previous_rho_gradient_diff on task 0)
  |   Average:        2.134 MB
  Note:  These values currently only include a subset of arrays which are explicitly tracked.
  The "true" memory usage will be greater.
------------------------------------------------------------

------------------------------------------------------------
          Begin self-consistency iteration #    3

  Date     :  20260327, Time     :  101113.245
------------------------------------------------------------
  Pulay mixing of updated and previous charge densities.
  Renormalizing the density to the exact electron count on the 3D integration grid.
  | Formal number of electrons (from input files) :       4.0000000000
  | Integrated number of electrons on 3D grid     :       4.0000000000
  | Charge integration error                      :      -0.0000000000
  | Normalization factor for density and gradient :       1.0000000000

  Evaluating partitioned Hartree potential by multipole expansion.
  | Original multipole sum: apparent total charge =  -0.214918E-13
  | Sum of charges compensated after spline to logarithmic grids =   0.101182E-05
  | Analytical far-field extrapolation by fixed multipoles:
  | Hartree multipole sum: apparent total charge =  -0.000000E+00
  Summing up the Hartree potential.
  Time summed over all CPUs for potential: real work        0.109 s, elapsed        0.109 s
  | RMS charge density error from multipole expansion :   0.348958E-04
  | Average real-space part of the electrostatic potential :      0.01007814 eV

  Integrating Hamiltonian matrix: batch-based integration.
  Time summed over all CPUs for integration: real work        0.049 s, elapsed        0.049 s

  Updating Kohn-Sham eigenvalues and eigenvectors using ELSI and the (modified) LAPACK eigensolver.
  Starting LAPACK eigensolver
  Finished Cholesky decomposition
  | Time :     0.000 s
  Finished transformation to standard eigenproblem
  | Time :     0.000 s
  Finished solving standard eigenproblem
  | Time :     0.000 s
  Finished back-transformation of eigenvectors
  | Time :     0.000 s

  Obtaining occupation numbers and electronic chemical potential using ELSI.
  | Note that, for insulating systems, the printed 'chemical potential' value is not uniquely defined.
  | It can be anywhere in the energy gap, as long as it correctly separates occupied and unoccupied states.
  | In systems with a gap, the physically relevant chemical potential is the VBM or HOMO.

  | Chemical potential (Fermi level):     0.16586010 eV
  What follows are estimated values for band gap, HOMO, LUMO, etc.
  | They are estimated on a discrete k-point grid and not necessarily exact.
  | For converged numbers, create a DOS and/or band structure plot on a denser k-grid.

  Highest occupied state (VBM) at    -14.94584947 eV (relative to internal zero)
  | Occupation number:      2.00000000
  | K-point:       1 at    0.000000    0.000000    0.000000 (in units of recip. lattice)

  Lowest unoccupied state (CBM) at    15.27756967 eV (relative to internal zero)
  | Occupation number:      0.00000000
  | K-point:       7 at    0.500000    0.500000    0.000000 (in units of recip. lattice)

  The gap value is above 0.2 eV. Unless you are using a very sparse k-point grid,
  this system is most likely an insulator or a semiconductor.
  ESTIMATED overall HOMO-LUMO gap:     30.22341914 eV between HOMO at k-point 1 and LUMO at k-point 7
  | This appears to be an indirect band gap.
  | Smallest direct gap :     30.88955948 eV for k_point 7 at    0.500000    0.500000    0.000000 (in units of recip. lattice)

  Total energy components:
  | Sum of eigenvalues            :          -2.31145419 Ha         -62.89786862 eV
  | XC energy correction          :          -2.10013857 Ha         -57.14767820 eV
  | XC potential correction       :           2.68654216 Ha          73.10453162 eV
  | Free-atom electrostatic energy:          -4.05318423 Ha        -110.29275466 eV
  | Hartree energy correction     :          -0.00797654 Ha          -0.21705278 eV
  | Entropy correction            :          -0.00000000 Ha          -0.00000000 eV
  | ---------------------------
  | Total energy                  :          -5.78621138 Ha        -157.45082264 eV
  | Total energy, T -> 0          :          -5.78621138 Ha        -157.45082264 eV  <-- do not rely on this value for anything but (periodic) metals
  | Electronic free energy        :          -5.78621138 Ha        -157.45082264 eV

  Derived energy quantities:
  | Kinetic energy                :           5.73422319 Ha         156.03615210 eV
  | Electrostatic energy          :          -9.42029600 Ha        -256.33929653 eV
  | Energy correction for multipole
  | error in Hartree potential    :          -0.00000032 Ha          -0.00000867 eV
  | Sum of eigenvalues per atom                           :         -31.44893431 eV
  | Total energy (T->0) per atom                          :         -78.72541132 eV  <-- do not rely on this value for anything but (periodic) metals
  | Electronic free energy per atom                       :         -78.72541132 eV
  Evaluating new KS density using the density matrix
  Evaluating density matrix
  Time summed over all CPUs for getting density from density matrix: real work        0.060 s, elapsed        0.060 s
  Integration grid: deviation in total charge (<rho> - N_e) =   1.421085E-14

  Self-consistency convergence accuracy:
  | Change of charge density      :  0.1156E-05
  | Change of unmixed KS density  :  0.2314E-04
  | Change of sum of eigenvalues  : -0.1828E-03 eV
  | Change of total energy        : -0.9767E-08 eV


------------------------------------------------------------
  End self-consistency iteration #     3       :  max(cpu_time)    wall_clock(cpu1)
  | Time for this iteration                     :        0.221 s           0.221 s
  | Charge density update                       :        0.060 s           0.061 s
  | Density mixing                              :        0.000 s           0.000 s
  | Hartree multipole update                    :        0.000 s           0.001 s
  | Hartree multipole summation                 :        0.110 s           0.110 s
  | Integration                                 :        0.049 s           0.049 s
  | Solution of K.-S. eqns.                     :        0.000 s           0.000 s
  | Total energy evaluation                     :        0.000 s           0.000 s

  Partial memory accounting:
  | Current value for overall tracked memory usage:
  |   Minimum:        6.577 MB (on task 0)
  |   Maximum:        6.577 MB (on task 0)
  |   Average:        6.577 MB
  | Peak value for overall tracked memory usage:
  |   Minimum:        7.297 MB (on task 0 after allocating gradient_basis_wave)
  |   Maximum:        7.297 MB (on task 0 after allocating gradient_basis_wave)
  |   Average:        7.297 MB
  | Largest tracked array allocation so far:
  |   Minimum:        2.134 MB (previous_rho_gradient_diff on task 0)
  |   Maximum:        2.134 MB (previous_rho_gradient_diff on task 0)
  |   Average:        2.134 MB
  Note:  These values currently only include a subset of arrays which are explicitly tracked.
  The "true" memory usage will be greater.
------------------------------------------------------------

------------------------------------------------------------
          Begin self-consistency iteration #    4

  Date     :  20260327, Time     :  101113.466
------------------------------------------------------------
  Pulay mixing of updated and previous charge densities.
  Renormalizing the density to the exact electron count on the 3D integration grid.
  | Formal number of electrons (from input files) :       4.0000000000
  | Integrated number of electrons on 3D grid     :       4.0000000000
  | Charge integration error                      :       0.0000000000
  | Normalization factor for density and gradient :       1.0000000000

  Evaluating partitioned Hartree potential by multipole expansion.
  | Original multipole sum: apparent total charge =  -0.495408E-13
  | Sum of charges compensated after spline to logarithmic grids =   0.101243E-05
  | Analytical far-field extrapolation by fixed multipoles:
  | Hartree multipole sum: apparent total charge =  -0.000000E+00
  Summing up the Hartree potential.
  Time summed over all CPUs for potential: real work        0.115 s, elapsed        0.115 s
  | RMS charge density error from multipole expansion :   0.349155E-04
  | Average real-space part of the electrostatic potential :      0.01008525 eV

  Integrating Hamiltonian matrix: batch-based integration.
  Time summed over all CPUs for integration: real work        0.050 s, elapsed        0.050 s

  Updating Kohn-Sham eigenvalues and eigenvectors using ELSI and the (modified) LAPACK eigensolver.
  Starting LAPACK eigensolver
  Finished Cholesky decomposition
  | Time :     0.000 s
  Finished transformation to standard eigenproblem
  | Time :     0.000 s
  Finished solving standard eigenproblem
  | Time :     0.000 s
  Finished back-transformation of eigenvectors
  | Time :     0.000 s

  Obtaining occupation numbers and electronic chemical potential using ELSI.
  | Note that, for insulating systems, the printed 'chemical potential' value is not uniquely defined.
  | It can be anywhere in the energy gap, as long as it correctly separates occupied and unoccupied states.
  | In systems with a gap, the physically relevant chemical potential is the VBM or HOMO.

  | Chemical potential (Fermi level):     0.16588401 eV
  What follows are estimated values for band gap, HOMO, LUMO, etc.
  | They are estimated on a discrete k-point grid and not necessarily exact.
  | For converged numbers, create a DOS and/or band structure plot on a denser k-grid.

  Highest occupied state (VBM) at    -14.94581484 eV (relative to internal zero)
  | Occupation number:      2.00000000
  | K-point:       1 at    0.000000    0.000000    0.000000 (in units of recip. lattice)

  Lowest unoccupied state (CBM) at    15.27758287 eV (relative to internal zero)
  | Occupation number:      0.00000000
  | K-point:       7 at    0.500000    0.500000    0.000000 (in units of recip. lattice)

  The gap value is above 0.2 eV. Unless you are using a very sparse k-point grid,
  this system is most likely an insulator or a semiconductor.
  ESTIMATED overall HOMO-LUMO gap:     30.22339771 eV between HOMO at k-point 1 and LUMO at k-point 7
  | This appears to be an indirect band gap.
  | Smallest direct gap :     30.88953994 eV for k_point 7 at    0.500000    0.500000    0.000000 (in units of recip. lattice)

  Total energy components:
  | Sum of eigenvalues            :          -2.31144944 Ha         -62.89773956 eV
  | XC energy correction          :          -2.10014160 Ha         -57.14776049 eV
  | XC potential correction       :           2.68654609 Ha          73.10463856 eV
  | Free-atom electrostatic energy:          -4.05318423 Ha        -110.29275466 eV
  | Hartree energy correction     :          -0.00798219 Ha          -0.21720648 eV
  | Entropy correction            :          -0.00000000 Ha          -0.00000000 eV
  | ---------------------------
  | Total energy                  :          -5.78621138 Ha        -157.45082264 eV
  | Total energy, T -> 0          :          -5.78621138 Ha        -157.45082264 eV  <-- do not rely on this value for anything but (periodic) metals
  | Electronic free energy        :          -5.78621138 Ha        -157.45082264 eV

  Derived energy quantities:
  | Kinetic energy                :           5.73423540 Ha         156.03648438 eV
  | Electrostatic energy          :          -9.42030519 Ha        -256.33954652 eV
  | Energy correction for multipole
  | error in Hartree potential    :          -0.00000032 Ha          -0.00000867 eV
  | Sum of eigenvalues per atom                           :         -31.44886978 eV
  | Total energy (T->0) per atom                          :         -78.72541132 eV  <-- do not rely on this value for anything but (periodic) metals
  | Electronic free energy per atom                       :         -78.72541132 eV
  Evaluating new KS density using the density matrix
  Evaluating density matrix
  Time summed over all CPUs for getting density from density matrix: real work        0.060 s, elapsed        0.060 s
  Integration grid: deviation in total charge (<rho> - N_e) =   7.105427E-15

  Self-consistency convergence accuracy:
  | Change of charge density      :  0.2440E-05
  | Change of unmixed KS density  :  0.2227E-07
  | Change of sum of eigenvalues  :  0.1291E-03 eV
  | Change of total energy        :  0.1417E-08 eV


------------------------------------------------------------
  End self-consistency iteration #     4       :  max(cpu_time)    wall_clock(cpu1)
  | Time for this iteration                     :        0.228 s           0.228 s
  | Charge density update                       :        0.060 s           0.060 s
  | Density mixing                              :        0.001 s           0.001 s
  | Hartree multipole update                    :        0.000 s           0.000 s
  | Hartree multipole summation                 :        0.116 s           0.116 s
  | Integration                                 :        0.050 s           0.051 s
  | Solution of K.-S. eqns.                     :        0.000 s           0.000 s
  | Total energy evaluation                     :        0.000 s           0.000 s

  Partial memory accounting:
  | Current value for overall tracked memory usage:
  |   Minimum:        6.577 MB (on task 0)
  |   Maximum:        6.577 MB (on task 0)
  |   Average:        6.577 MB
  | Peak value for overall tracked memory usage:
  |   Minimum:        7.297 MB (on task 0 after allocating gradient_basis_wave)
  |   Maximum:        7.297 MB (on task 0 after allocating gradient_basis_wave)
  |   Average:        7.297 MB
  | Largest tracked array allocation so far:
  |   Minimum:        2.134 MB (previous_rho_gradient_diff on task 0)
  |   Maximum:        2.134 MB (previous_rho_gradient_diff on task 0)
  |   Average:        2.134 MB
  Note:  These values currently only include a subset of arrays which are explicitly tracked.
  The "true" memory usage will be greater.
------------------------------------------------------------

------------------------------------------------------------
          Begin self-consistency iteration #    5

  Date     :  20260327, Time     :  101113.694
------------------------------------------------------------
  Pulay mixing of updated and previous charge densities.
  * Rank deficiency in solve_pulay; rank =     3; saved_iter =     4
  Renormalizing the density to the exact electron count on the 3D integration grid.
  | Formal number of electrons (from input files) :       4.0000000000
  | Integrated number of electrons on 3D grid     :       4.0000000000
  | Charge integration error                      :       0.0000000000
  | Normalization factor for density and gradient :       1.0000000000

  Evaluating partitioned Hartree potential by multipole expansion.
  | Original multipole sum: apparent total charge =   0.183372E-13
  | Sum of charges compensated after spline to logarithmic grids =   0.101251E-05
  | Analytical far-field extrapolation by fixed multipoles:
  | Hartree multipole sum: apparent total charge =  -0.000000E+00
  Summing up the Hartree potential.
  Time summed over all CPUs for potential: real work        0.109 s, elapsed        0.109 s
  | RMS charge density error from multipole expansion :   0.349179E-04
  | Average real-space part of the electrostatic potential :      0.01008622 eV

  Integrating Hamiltonian matrix: batch-based integration.
  Time summed over all CPUs for integration: real work        0.050 s, elapsed        0.050 s

  Updating Kohn-Sham eigenvalues and eigenvectors using ELSI and the (modified) LAPACK eigensolver.
  Starting LAPACK eigensolver
  Finished Cholesky decomposition
  | Time :     0.000 s
  Finished transformation to standard eigenproblem
  | Time :     0.000 s
  Finished solving standard eigenproblem
  | Time :     0.000 s
  Finished back-transformation of eigenvectors
  | Time :     0.000 s

  Obtaining occupation numbers and electronic chemical potential using ELSI.
  | Note that, for insulating systems, the printed 'chemical potential' value is not uniquely defined.
  | It can be anywhere in the energy gap, as long as it correctly separates occupied and unoccupied states.
  | In systems with a gap, the physically relevant chemical potential is the VBM or HOMO.

  | Chemical potential (Fermi level):     0.16588736 eV
  What follows are estimated values for band gap, HOMO, LUMO, etc.
  | They are estimated on a discrete k-point grid and not necessarily exact.
  | For converged numbers, create a DOS and/or band structure plot on a denser k-grid.

  Highest occupied state (VBM) at    -14.94580999 eV (relative to internal zero)
  | Occupation number:      2.00000000
  | K-point:       1 at    0.000000    0.000000    0.000000 (in units of recip. lattice)

  Lowest unoccupied state (CBM) at    15.27758471 eV (relative to internal zero)
  | Occupation number:      0.00000000
  | K-point:       7 at    0.500000    0.500000    0.000000 (in units of recip. lattice)

  The gap value is above 0.2 eV. Unless you are using a very sparse k-point grid,
  this system is most likely an insulator or a semiconductor.
  ESTIMATED overall HOMO-LUMO gap:     30.22339470 eV between HOMO at k-point 1 and LUMO at k-point 7
  | This appears to be an indirect band gap.
  | Smallest direct gap :     30.88953720 eV for k_point 7 at    0.500000    0.500000    0.000000 (in units of recip. lattice)

  Total energy components:
  | Sum of eigenvalues            :          -2.31144878 Ha         -62.89772147 eV
  | XC energy correction          :          -2.10014202 Ha         -57.14777202 eV
  | XC potential correction       :           2.68654664 Ha          73.10465354 eV
  | Free-atom electrostatic energy:          -4.05318423 Ha        -110.29275466 eV
  | Hartree energy correction     :          -0.00798298 Ha          -0.21722802 eV
  | Entropy correction            :          -0.00000000 Ha          -0.00000000 eV
  | ---------------------------
  | Total energy                  :          -5.78621138 Ha        -157.45082264 eV
  | Total energy, T -> 0          :          -5.78621138 Ha        -157.45082264 eV  <-- do not rely on this value for anything but (periodic) metals
  | Electronic free energy        :          -5.78621138 Ha        -157.45082264 eV

  Derived energy quantities:
  | Kinetic energy                :           5.73423713 Ha         156.03653136 eV
  | Electrostatic energy          :          -9.42030649 Ha        -256.33958198 eV
  | Energy correction for multipole
  | error in Hartree potential    :          -0.00000032 Ha          -0.00000867 eV
  | Sum of eigenvalues per atom                           :         -31.44886073 eV
  | Total energy (T->0) per atom                          :         -78.72541132 eV  <-- do not rely on this value for anything but (periodic) metals
  | Electronic free energy per atom                       :         -78.72541132 eV

  Self-consistency convergence accuracy:
  | Change of charge density      :  0.3035E-06
  | Change of unmixed KS density  :  0.1716E-07
  | Change of sum of eigenvalues  :  0.1809E-04 eV
  | Change of total energy        :  0.1607E-09 eV

  Writing Kohn-Sham eigenvalues.
  K-point:       1 at    0.000000    0.000000    0.000000 (in units of recip. lattice)

  State    Occupation    Eigenvalue [Ha]    Eigenvalue [eV]
      1       2.00000          -0.626246          -17.04101
      2       2.00000          -0.549248          -14.94581
      3       0.00000           0.795716           21.65253
      4       0.00000           0.795716           21.65253
      5       0.00000           0.795716           21.65253
      6       0.00000           1.145200           31.16247
      7       0.00000           1.145200           31.16247
      8       0.00000           1.145200           31.16247

  What follows are estimated values for band gap, HOMO, LUMO, etc.
  | They are estimated on a discrete k-point grid and not necessarily exact.
  | For converged numbers, create a DOS and/or band structure plot on a denser k-grid.

  Highest occupied state (VBM) at    -14.94580999 eV (relative to internal zero)
  | Occupation number:      2.00000000
  | K-point:       1 at    0.000000    0.000000    0.000000 (in units of recip. lattice)

  Lowest unoccupied state (CBM) at    15.27758471 eV (relative to internal zero)
  | Occupation number:      0.00000000
  | K-point:       7 at    0.500000    0.500000    0.000000 (in units of recip. lattice)

  The gap value is above 0.2 eV. Unless you are using a very sparse k-point grid,
  this system is most likely an insulator or a semiconductor.
  ESTIMATED overall HOMO-LUMO gap:     30.22339470 eV between HOMO at k-point 1 and LUMO at k-point 7
  | This appears to be an indirect band gap.
  | Smallest direct gap :     30.88953720 eV for k_point 7 at    0.500000    0.500000    0.000000 (in units of recip. lattice)

  | Chemical Potential                          :     0.16588736 eV
  | Note that, for insulating systems, the printed 'chemical potential' value is not uniquely defined.
  | It can be anywhere in the energy gap, as long as it correctly separates occupied and unoccupied states.
  | In systems with a gap, the physically relevant chemical potential is the VBM or HOMO.

  Self-consistency cycle converged.


------------------------------------------------------------
  End self-consistency iteration #     5       :  max(cpu_time)    wall_clock(cpu1)
  | Time for this iteration                     :        0.162 s           0.163 s
  | Charge density update                       :        0.000 s           0.000 s
  | Density mixing                              :        0.001 s           0.001 s
  | Hartree multipole update                    :        0.000 s           0.001 s
  | Hartree multipole summation                 :        0.110 s           0.110 s
  | Integration                                 :        0.050 s           0.050 s
  | Solution of K.-S. eqns.                     :        0.000 s           0.001 s
  | Total energy evaluation                     :        0.000 s           0.000 s

  Partial memory accounting:
  | Current value for overall tracked memory usage:
  |   Minimum:        6.577 MB (on task 0)
  |   Maximum:        6.577 MB (on task 0)
  |   Average:        6.577 MB
  | Peak value for overall tracked memory usage:
  |   Minimum:        7.297 MB (on task 0 after allocating gradient_basis_wave)
  |   Maximum:        7.297 MB (on task 0 after allocating gradient_basis_wave)
  |   Average:        7.297 MB
  | Largest tracked array allocation so far:
  |   Minimum:        2.134 MB (previous_rho_gradient_diff on task 0)
  |   Maximum:        2.134 MB (previous_rho_gradient_diff on task 0)
  |   Average:        2.134 MB
  Note:  These values currently only include a subset of arrays which are explicitly tracked.
  The "true" memory usage will be greater.
------------------------------------------------------------

  Energy and forces in a compact form:
  | Total energy uncorrected      :         -0.157450822636069E+03 eV
  | Total energy corrected        :         -0.157450822636069E+03 eV  <-- do not rely on this value for anything but (periodic) metals
  | Electronic free energy        :         -0.157450822636069E+03 eV

  ------------------------------------ 
  Start decomposition of the XC Energy 
  ------------------------------------ 
  X and C from original XC functional choice 
  Hartree-Fock Energy :          0.000000000 Ha              0.000000000 eV
  X Energy            :         -2.016903589 Ha            -54.882739065 eV
  C Energy            :         -0.083238431 Ha             -2.265032958 eV
  XC Energy w/o HF    :         -2.100142020 Ha            -57.147772023 eV
  Total XC Energy     :         -2.100142020 Ha            -57.147772023 eV
  ------------------------------------ 
  LDA X and C from self-consistent density 
  X Energy LDA        :         -1.758949306 Ha            -47.863445877 eV
  C Energy LDA        :         -0.224551614 Ha             -6.110360322 eV
  ------------------------------------ 
  End decomposition of the XC Energy 
  ------------------------------------ 

------------------------------------------------------------
  Memory usage across processes on interface_librpa_ext entry
  Partial memory accounting:
  | Current value for overall tracked memory usage:
  |   Minimum:        6.577 MB (on task 0)
  |   Maximum:        6.577 MB (on task 0)
  |   Average:        6.577 MB
  | Peak value for overall tracked memory usage:
  |   Minimum:        7.297 MB (on task 0 after allocating gradient_basis_wave)
  |   Maximum:        7.297 MB (on task 0 after allocating gradient_basis_wave)
  |   Average:        7.297 MB
  | Largest tracked array allocation so far:
  |   Minimum:        2.134 MB (previous_rho_gradient_diff on task 0)
  |   Maximum:        2.134 MB (previous_rho_gradient_diff on task 0)
  |   Average:        2.134 MB
  Note:  These values currently only include a subset of arrays which are explicitly tracked.
  The "true" memory usage will be greater.
          Checking for symmetries
  Found symmetry 1.00 0.00 0.00  0.00 1.00 0.00  0.00 0.00 1.00  around 0.00 0.00 0.00
  Found symmetry 1.00 0.00 0.00  0.00 1.00 0.00  0.00 0.00-1.00  around 0.00 0.00 0.00
  Found symmetry 1.00 0.00 0.00  0.00-1.00 0.00  0.00 0.00 1.00  around 0.00 0.00 0.00
  Found symmetry 1.00 0.00 0.00  0.00-1.00 0.00  0.00 0.00-1.00  around 0.00 0.00 0.00
  Found symmetry-1.00 0.00 0.00  0.00 1.00 0.00  0.00 0.00 1.00  around 0.00 0.00 0.00
  Found symmetry-1.00 0.00 0.00  0.00 1.00 0.00  0.00 0.00-1.00  around 0.00 0.00 0.00
  Found symmetry-1.00 0.00 0.00  0.00-1.00 0.00  0.00 0.00 1.00  around 0.00 0.00 0.00
  Found symmetry-1.00 0.00 0.00  0.00-1.00 0.00  0.00 0.00-1.00  around 0.00 0.00 0.00
  Found symmetry 0.00 0.00 1.00  1.00 0.00 0.00  0.00 1.00 0.00  around 0.00 0.00 0.00
  Found symmetry 0.00 0.00-1.00  1.00 0.00 0.00  0.00 1.00 0.00  around 0.00 0.00 0.00
  Found symmetry 0.00 0.00 1.00  1.00 0.00 0.00  0.00-1.00 0.00  around 0.00 0.00 0.00
  Found symmetry 0.00 0.00-1.00  1.00 0.00 0.00  0.00-1.00 0.00  around 0.00 0.00 0.00
  Found symmetry 0.00 0.00 1.00 -1.00 0.00 0.00  0.00 1.00 0.00  around 0.00 0.00 0.00
  Found symmetry 0.00 0.00-1.00 -1.00 0.00 0.00  0.00 1.00 0.00  around 0.00 0.00 0.00
  Found symmetry 0.00 0.00 1.00 -1.00 0.00 0.00  0.00-1.00 0.00  around 0.00 0.00 0.00
  Found symmetry 0.00 0.00-1.00 -1.00 0.00 0.00  0.00-1.00 0.00  around 0.00 0.00 0.00
  Found symmetry 0.00 1.00 0.00  0.00 0.00 1.00  1.00 0.00 0.00  around 0.00 0.00 0.00
  Found symmetry 0.00 1.00 0.00  0.00 0.00-1.00  1.00 0.00 0.00  around 0.00 0.00 0.00
  Found symmetry 0.00-1.00 0.00  0.00 0.00 1.00  1.00 0.00 0.00  around 0.00 0.00 0.00
  Found symmetry 0.00-1.00 0.00  0.00 0.00-1.00  1.00 0.00 0.00  around 0.00 0.00 0.00
  Found symmetry 0.00 1.00 0.00  0.00 0.00 1.00 -1.00 0.00 0.00  around 0.00 0.00 0.00
  Found symmetry 0.00 1.00 0.00  0.00 0.00-1.00 -1.00 0.00 0.00  around 0.00 0.00 0.00
  Found symmetry 0.00-1.00 0.00  0.00 0.00 1.00 -1.00 0.00 0.00  around 0.00 0.00 0.00
  Found symmetry 0.00-1.00 0.00  0.00 0.00-1.00 -1.00 0.00 0.00  around 0.00 0.00 0.00
  Found symmetry 0.00 1.00 0.00  1.00 0.00 0.00  0.00 0.00 1.00  around 0.00 0.00 0.00
  Found symmetry 0.00 1.00 0.00  1.00 0.00 0.00  0.00 0.00-1.00  around 0.00 0.00 0.00
  Found symmetry 0.00-1.00 0.00  1.00 0.00 0.00  0.00 0.00 1.00  around 0.00 0.00 0.00
  Found symmetry 0.00-1.00 0.00  1.00 0.00 0.00  0.00 0.00-1.00  around 0.00 0.00 0.00
  Found symmetry 0.00 1.00 0.00 -1.00 0.00 0.00  0.00 0.00 1.00  around 0.00 0.00 0.00
  Found symmetry 0.00 1.00 0.00 -1.00 0.00 0.00  0.00 0.00-1.00  around 0.00 0.00 0.00
  Found symmetry 0.00-1.00 0.00 -1.00 0.00 0.00  0.00 0.00 1.00  around 0.00 0.00 0.00
  Found symmetry 0.00-1.00 0.00 -1.00 0.00 0.00  0.00 0.00-1.00  around 0.00 0.00 0.00
  Found symmetry 1.00 0.00 0.00  0.00 0.00 1.00  0.00 1.00 0.00  around 0.00 0.00 0.00
  Found symmetry 1.00 0.00 0.00  0.00 0.00-1.00  0.00 1.00 0.00  around 0.00 0.00 0.00
  Found symmetry 1.00 0.00 0.00  0.00 0.00 1.00  0.00-1.00 0.00  around 0.00 0.00 0.00
  Found symmetry 1.00 0.00 0.00  0.00 0.00-1.00  0.00-1.00 0.00  around 0.00 0.00 0.00
  Found symmetry-1.00 0.00 0.00  0.00 0.00 1.00  0.00 1.00 0.00  around 0.00 0.00 0.00
  Found symmetry-1.00 0.00 0.00  0.00 0.00-1.00  0.00 1.00 0.00  around 0.00 0.00 0.00
  Found symmetry-1.00 0.00 0.00  0.00 0.00 1.00  0.00-1.00 0.00  around 0.00 0.00 0.00
  Found symmetry-1.00 0.00 0.00  0.00 0.00-1.00  0.00-1.00 0.00  around 0.00 0.00 0.00
  Found symmetry 0.00 0.00 1.00  0.00 1.00 0.00  1.00 0.00 0.00  around 0.00 0.00 0.00
  Found symmetry 0.00 0.00-1.00  0.00 1.00 0.00  1.00 0.00 0.00  around 0.00 0.00 0.00
  Found symmetry 0.00 0.00 1.00  0.00-1.00 0.00  1.00 0.00 0.00  around 0.00 0.00 0.00
  Found symmetry 0.00 0.00-1.00  0.00-1.00 0.00  1.00 0.00 0.00  around 0.00 0.00 0.00
  Found symmetry 0.00 0.00 1.00  0.00 1.00 0.00 -1.00 0.00 0.00  around 0.00 0.00 0.00
  Found symmetry 0.00 0.00-1.00  0.00 1.00 0.00 -1.00 0.00 0.00  around 0.00 0.00 0.00
[...]
  starting computing hf_exchange_matr_ with calculate_fock_matrix%evaluate
  Max. memory consumption per node for dm_cols [GB]:      0.00
  Max. memory consumption per node for fock_matrix [GB]:      0.00
  Calculating non-local Hartree-Fock exchange by two-center RI (RI-LVL).
  screening_threshold (crit_val) =  0.000000100000
  Max. allocated memory per node for ovlp3fn_rcv [GB]:      0.00
  Max. allocated memory per node for fock_matrix_row [GB]:      0.00
  Max. memory consumption per node for m_ovlp_fact11 [GB]:      0.00
  Max. memory consumption per node for d_aux_mem [GB]:      0.00
  Max. memory consumption per node for dm_x_o3fn_aux [GB]:      0.00
  Max. allocated memory per node for tmp1/tmp2 [GB]:      0.00
   final impselect vector           2           3           6           1
   Time for autotuning:    6.6999999990002834E-004
  Exact exchange progress report - outermost block loop i_block: 1 ..       8
  |        1         2         3         4         5         6         7         8  
 Total ovlp3fn data transfer [GB]   1.5849599367356859E-004
  Average sparsity of tmp1/2 0.50000000
  Average sparsity of fock_matrix_row 0.95312500
  Full exact exchange energy:      55.298995552721 eV.
  Detailed communication and barrier times:
  | Comm    0:        0.000       0.000       0.000       0.000       0.000       0.000       0.000       0.000       0.000       0.000
  | Imbalance    0:        0.000       0.000       0.000       0.000       0.000       0.000       0.000       0.000       0.000       0.000
  Times            DM_x_o3fn   CM_prod_1   CM_prod_2   tmp2_prod        Sync   Imbalance       Other  Total calc
  | Times    0:        0.000       0.001       0.000       0.000       0.000       0.000       0.000       0.002
  | Times  sum:        0.000       0.001       0.000       0.000       0.000       0.000       0.000       0.002

  Decomposition of Other based on code block (only on MPI task 0):
  Times             Block #1    Block #2    Block #3    Block #4    Block #5    Block #6    Block #7    Block #8
  | Times    0:        0.000       0.000       0.000       0.000       0.000       0.000       0.000       0.000

  Times             Block #9   Block #10   Block #11   Block #12   Block #13   Block #14   Block #15   Block #16
  | Times    0:        0.000       0.000       0.000       0.000       0.000       0.000       0.000       0.000

  Times            Block Sum    Expected
  | Times    0:        0.000       0.000

  ------------------------------------------------------------------

  Post-SCF correlation calculation starts ...

 communicator split irkq, row, col:            1           1           1
 reso: n_basbas,n_basis,n_states          26           8           8
 reso: n_basis_soc,n_saved_states_soc           0           0
 reso: n_k_points,n_irk_points,max_n_basbas_sp           8           8          13
 reso: max_n_basis_sp,n_cells,n_full_freq           4         192           6
  Number of angular grids for average inverse dielectric matrix:     5810
  vol_gamma_numeric/vol_gamma:     0.17054117E+00    0.17017245E+00
  Angular quadrature accuracy for volume:         1.00216673 (should be close to 1)

  Start calculating macroscopic dielectric tensor for periodic GW ...
  Wing vector (multiplication of RI coefficients and moment matrix) not requested, skip
  Calculating real-space p_x matrix elements...
  Integrating real-space momentum matrix: batch-based integration.
  Time summed over all CPUs for integration: real work        0.060 s, elapsed        0.060 s

  Calculating real-space p_y matrix elements...
  Integrating real-space momentum matrix: batch-based integration.
  Time summed over all CPUs for integration: real work        0.060 s, elapsed        0.060 s

  Calculating real-space p_z matrix elements...
  Integrating real-space momentum matrix: batch-based integration.
  Time summed over all CPUs for integration: real work        0.060 s, elapsed        0.060 s

  Done preparing real-space moment matrix
  Finished head tensor calculation for periodic GW (without SOC)
  Integrating local/semilocal matrix: batch-based integration.
  Time summed over all CPUs for integration: real work        0.050 s, elapsed        0.050 s

------------------------------------------------------------------------------
  Start to calculate DFT xc contribution for each single-particle level ...
  | Storage requirements for basis-basbas products (processor-local):
  |   Species He: n_prodsfn:    13; storage:        0.41 MiB.


  Finished with initialization of triples (Coulomb norm) ...
  Preparing TB like auxiliary 2-center Coulomb matrix
  SBT integration errors (all should be 'small'):
  large logFT aliasing -> increase N/lnrange
  large SBT aliasing -> decrease lnk0 & increase lnk0+lnrange
  large SBT ringing -> decrease lnr0 & increase lnr0+lnrange
  |            El't  L: logFT-al.   small-k   large-k   small-r   large-r
  | Need to store    22 splines of   115 points taking         24 KiB.
  | Spline reduction from  4096 to   115 points by (cutting and)     1 x coarsening gives error:  0.00E+00

  Finished with initialization of Coulomb interaction matrix ...

  Compute and write real-space triple LVL expansion coefficents in real space for LibRPA ...
  Folding C(R) to BvK to reduce disk space consumption
                     ap_begin       ap_end   cell_begin     cell_end   my_comm_ap size_comm_ap myid_comm_ap
  Task         0            1            4            1          192  -1006632940            1            0
  Distributed                  768 (atom pair,cell) tasks
Non-zero C of all Cs exported by task     0 :       32 /       32

  Finished with initialization of the periodic LVL triple coefficients ...
  CPU/Clock time:       1.003       1.004

  Atomic logSBT for LVL-triples                :  max(cpu_time)    wall_clock(cpu1)
  | Multiplication with kernel                  :        0.019 s           0.015 s
  | Main matrix multiplication                  :        0.169 s           0.153 s
  | Analytic angular integration                :        0.043 s           0.042 s
  | Kernel construction                         :        0.020 s           0.025 s
  | Overall 2-center overlap time               :        0.354 s           0.348 s
  | 3-center preparation multiplications        :        0.000 s           0.000 s
  | 3-center preparation SBTs                   :        0.021 s           0.021 s
  | 3-center combinations                       :        0.368 s           0.369 s
  | Overal 3-center time                        :        0.389 s           0.390 s
  | LVL initialization                          :        0.002 s           0.002 s
  | Whole LVL-triples                           :        0.002 s           0.002 s

  Atomic logSBT for 2-center Coulomb matrix    :  max(cpu_time)    wall_clock(cpu1)
  | TB initialization                           :        0.007 s           0.007 s
  | TB usage                                    :        0.004 s           0.004 s

  Calculating cut-Coulomb interaction matrix ...
  Preparing TB like auxiliary 2-center cutCoul matrix
  SBT integration errors (all should be 'small'):
  large logFT aliasing -> increase N/lnrange
  large SBT aliasing -> decrease lnk0 & increase lnk0+lnrange
  large SBT ringing -> decrease lnr0 & increase lnr0+lnrange
  |            El't  L: logFT-al.   small-k   large-k   small-r   large-r
  Initializing cut Coulomb operator.
  | Cut [erfc(-/+1)/2] from    2.7476 A to    3.2756 A within   15 sbt_grid points.

  | Need to store    22 splines of   156 points taking         32 KiB.
  | Spline reduction from  4096 to   156 points by (cutting and)     1 x coarsening gives error:  0.00E+00
  | Maximum value outside interaction range:  5.55E-16
  Calculating the Coulomb matrix in reciprocal space ...
  Atomic logSBT for 2-center cutCoul matrix    :  max(cpu_time)    wall_clock(cpu1)
  | TB initialization                           :        0.008 s           0.008 s
  | TB usage                                    :        0.003 s           0.004 s

  Atomic logSBT for 2-center cutCoul matrix    :  max(cpu_time)    wall_clock(cpu1)
  | TB initialization                           :        0.008 s           0.008 s
  | TB usage                                    :        0.003 s           0.004 s

  Preparing TB like auxiliary 2-center Coulomb matrix
  SBT integration errors (all should be 'small'):
  large logFT aliasing -> increase N/lnrange
  large SBT aliasing -> decrease lnk0 & increase lnk0+lnrange
  large SBT ringing -> decrease lnr0 & increase lnr0+lnrange
  |            El't  L: logFT-al.   small-k   large-k   small-r   large-r
  | Need to store    22 splines of   115 points taking         24 KiB.
  | Spline reduction from  4096 to   115 points by (cutting and)     1 x coarsening gives error:  0.00E+00
  | Gaussian spline reduction from  4096 to   115 points by (cutting and)     1 x coarsening gives error:  0.00E+00
  | Maximum value outside interaction range:  8.81E-11
  Calculating singularity lifting chi
  | Gamma:  1.00E+00; chi:     28.0265382681743453
  | Gamma:  5.00E-01; chi:     28.5265382681742778; extra:     29.0265382681742103
  | Gamma:  2.50E-01; chi:     28.7765382681743240; extra:     29.0265382681743702
  | Using chi:     29.0265382681743702; last diff:  1.60E-13
  Calculating the Coulomb matrix in reciprocal space ...
EXCLUDING GAMMA-POINT IN COULOMB POTENTIAL !!!
NOT EXCLUDING GAMMA-POINT IN COULOMB POTENTIAL !!!
NOT EXCLUDING GAMMA-POINT IN COULOMB POTENTIAL !!!
NOT EXCLUDING GAMMA-POINT IN COULOMB POTENTIAL !!!
NOT EXCLUDING GAMMA-POINT IN COULOMB POTENTIAL !!!
NOT EXCLUDING GAMMA-POINT IN COULOMB POTENTIAL !!!
NOT EXCLUDING GAMMA-POINT IN COULOMB POTENTIAL !!!
NOT EXCLUDING GAMMA-POINT IN COULOMB POTENTIAL !!!
NOT EXCLUDING GAMMA-POINT IN COULOMB POTENTIAL !!!
NOT EXCLUDING GAMMA-POINT IN COULOMB POTENTIAL !!!
NOT EXCLUDING GAMMA-POINT IN COULOMB POTENTIAL !!!
NOT EXCLUDING GAMMA-POINT IN COULOMB POTENTIAL !!!
NOT EXCLUDING GAMMA-POINT IN COULOMB POTENTIAL !!!
NOT EXCLUDING GAMMA-POINT IN COULOMB POTENTIAL !!!
NOT EXCLUDING GAMMA-POINT IN COULOMB POTENTIAL !!!
NOT EXCLUDING GAMMA-POINT IN COULOMB POTENTIAL !!!
NOT EXCLUDING GAMMA-POINT IN COULOMB POTENTIAL !!!
NOT EXCLUDING GAMMA-POINT IN COULOMB POTENTIAL !!!
NOT EXCLUDING GAMMA-POINT IN COULOMB POTENTIAL !!!
NOT EXCLUDING GAMMA-POINT IN COULOMB POTENTIAL !!!
NOT EXCLUDING GAMMA-POINT IN COULOMB POTENTIAL !!!
NOT EXCLUDING GAMMA-POINT IN COULOMB POTENTIAL !!!
NOT EXCLUDING GAMMA-POINT IN COULOMB POTENTIAL !!!
NOT EXCLUDING GAMMA-POINT IN COULOMB POTENTIAL !!!
  Atomic logSBT for 2-center Coulomb matrix    :  max(cpu_time)    wall_clock(cpu1)
  | TB initialization                           :        0.007 s           0.007 s
  | TB usage                                    :        0.002 s           0.002 s


------------------------------------------------------------------------------
  Final output of selected total energy values:

  The following output summarizes some interesting total energy values
  at the end of a run (AFTER all relaxation, molecular dynamics, etc.).

  | Total energy of the DFT / Hartree-Fock s.c.f. calculation      :           -157.450822636 eV
  | Final zero-broadening corrected energy (caution - metals only) :           -157.450822636 eV
  | For reference only, the value of 1 Hartree used in FHI-aims is :             27.211384500 eV
  | For reference only, the overall average (free atom contribution
  | + realspace contribution) of the electrostatic potential after
  | s.c.f. convergence is                                          :             -1.559153851 eV

  Before relying on these values, please be sure to understand exactly which
  total energy value is referred to by a given number. Different objects may
  all carry the same name 'total energy'. Definitions:

  Total energy of the DFT / Hartree-Fock s.c.f. calculation:
  | Note that this energy does not include ANY quantities calculated after the
  | s.c.f. cycle, in particular not ANY RPA, MP2, etc. many-body perturbation terms.

  Final zero-broadening corrected energy:
  | For metallic systems only, a broadening of the occupation numbers at the Fermi
  | level can be extrapolated back to zero broadening by an electron-gas inspired
  | formula. For all systems that are not real metals, this value can be
  | meaningless and should be avoided.

------------------------------------------------------------------------------
  Methods described in the following list of references were used in this FHI-aims run.
  If you publish the results, please make sure to cite these reference if they apply.
  FHI-aims is an academic code, and for our developers (often, Ph.D. students
  and postdocs), scientific credit in the community is essential.
  Thank you for helping us!

  For any use of FHI-aims, please cite:

    Volker Blum, Ralf Gehrke, Felix Hanke, Paula Havu, Ville Havu,
    Xinguo Ren, Karsten Reuter, and Matthias Scheffler
    'Ab initio molecular simulations with numeric atom-centered orbitals'
    Computer Physics Communications 180, 2175-2196 (2009)
    http://doi.org/10.1016/j.cpc.2009.06.022


  For Hartree-Fock, hybrid functionals, or many-body perturbation theory used in your run, please cite:

    Xinguo Ren, Patrick Rinke, Volker Blum, Juergen Wieferink, Alex Tkatchenko,
    Andrea Sanfilippo, Karsten Reuter, and Matthias Scheffler,
    'Resolution-of-identity approach to Hartree-Fock, hybrid density functionals,
    RPA, MP2, and GW with numeric atom-centered orbital basis functions'
    New Journal of Physics 14, 053020 (2012).
    http://doi.org/10.1088/1367-2630/14/5/053020


  The provided symmetry information was generated with SPGlib:

    Atsushi Togo, Yusuke Seto, Dimitar Pashov
    SPGlib 1.7.3 obtained from http://spglib.sourceforge.net
    Licence: New BSD license
    Copyright (C) 2008 Atsushi Togo


  For the minimax time/frequency grid (GreenX library), please cite

    M. Azizi, J. Wilhelm, D. Golze, M. Giantomassi, R.L. Panadés-Barrueta
    F.A. Delesma, A. Buccheri, A Gulans, P. Rinke, C. Draxl and X. Gonze
    'Time-frequency component of the GreenX library: minimax grids for
    efficient RPA and GW calculations'
    J. Open Source Softw. 2023, 8, 5570
    https://joss.theoj.org/papers/110.21105/joss.05570


  The ELSI infrastructure was used in your run to solve the Kohn-Sham electronic structure.
  Please check out https://wordpress.elsi-interchange.org to learn more.
  If scalability is important for your project, please acknowledge ELSI by citing:

    V. W-z. Yu, F. Corsetti, A. Garcia, W. P. Huhn, M. Jacquelin, W. Jia,
    B. Lange, L. Lin, J. Lu, W. Mi, A. Seifitokaldani, A. Vazquez-Mayagoitia,
    C. Yang, H. Yang, and V. Blum
    'ELSI: A unified software interface for Kohn-Sham electronic structure solvers'
    Computer Physics Communications 222, 267-285 (2018).
    http://doi.org/10.1016/j.cpc.2017.09.007


  For the real-space grid partitioning and parallelization used in this calculation, please cite:

    Ville Havu, Volker Blum, Paula Havu, and Matthias Scheffler,
    'Efficient O(N) integration for all-electron electronic structure calculation'
    'using numerically tabulated basis functions'
    Journal of Computational Physics 228, 8367-8379 (2009).
    http://doi.org/10.1016/j.jcp.2009.08.008


  The high-level electronic structure method used in your calculation
  employed our efficient localized resolution of identity for the Coulomb operator.
  Some calculations, especially large-scale hybrid density functional theory,
  are only possible thanks to this development. For this feature, please cite:

    Arvid Ihrig, Juergen Wieferink, Igor Ying Zhang, Matti Ropo, Xinguo Ren,
    Patrick Rinke, Matthias Scheffler, and Volker Blum,
    'Accurate localized resolution of identity approach for linear-scaling
    hybrid density functionals and for many-body perturbation theory'
    New Journal of Physics 117, 093020 (2015).
    http://doi.org/10.1088/1367-2630/17/9/093020

  Of course, there are many other important community references, e.g., those cited in the
  above references. Our list is limited to references that describe implementations in the
  FHI-aims code. The reason is purely practical (length of this list) - please credit others as well.
------------------------------------------------------------
Warnings summary:

At least    1 warnings were raised during execution.

------------------------------------------------------------
          Leaving FHI-aims.
          Date     :  20260327, Time     :  101114.905

          Computational steps:
          | Number of self-consistency cycles          :            5
          | Number of SCF (re)initializations          :            1

          Detailed time accounting                     :  max(cpu_time)    wall_clock(cpu1)
          | Total time                                  :        2.492 s           2.498 s
          | Preparation time                            :        0.017 s           0.017 s
          | Boundary condition initalization            :        0.040 s           0.040 s
          | Grid partitioning                           :        0.017 s           0.017 s
          | Preloading free-atom quantities on grid     :        0.145 s           0.145 s
          | Free-atom superposition energy              :        0.027 s           0.027 s
          | Total time for integrations                 :        0.327 s           0.329 s
          | Product basis setup: Total time             :        0.000 s           0.000 s
          | Product basis: | 2-center integrations     :(       0.000 s)  (       0.000 s)
          | Product basis: | LVL 3-center & coefficient:(       0.000 s)  (       0.000 s)
          | Initialization for periodic correlated calc :        1.003 s           1.004 s
          | Transforming LVL triples to recip. space    :        0.000 s           0.000 s
          | Total time for head/wing terms for PBC GW   :        0.180 s           0.180 s
          | The exact-exchange part of GW calc.         :        0.038 s           0.038 s
          | Total time for polarizability calc.         :        0.000 s           0.000 s
          | Total time for polarizability of k space    :        0.000 s           0.000 s
          | Aanalytic contiuation time                  :        0.000 s           0.000 s
          | Total time for solution of K.-S. equations  :        0.003 s           0.003 s
          | Total time for density update               :        0.300 s           0.302 s
          | Total time for mixing                       :        0.002 s           0.002 s
          | Total time for Hartree multipole update     :        0.002 s           0.004 s
          | Total time for Hartree multipole sum        :        0.554 s           0.553 s
          | Total time for total energy evaluation      :        0.000 s           0.000 s
          | Total time for scaled ZORA corrections      :        0.000 s           0.000 s

          Partial memory accounting:
          | Residual value for overall tracked memory usage across tasks:     0.000000 MB (should be 0.000000 MB)
          | Peak values for overall tracked memory usage:
          |   Minimum:        7.491 MB (on task 0 after allocating index_b)
          |   Maximum:        7.491 MB (on task 0 after allocating index_b)
          |   Average:        7.491 MB
          | Largest tracked array allocation:
          |   Minimum:        2.134 MB (previous_rho_gradient_diff on task 0)
          |   Maximum:        2.134 MB (previous_rho_gradient_diff on task 0)
          |   Average:        2.134 MB
          Note:  These values currently only include a subset of arrays which are explicitly tracked.
          The "true" memory usage will be greater.

          Have a nice day.
------------------------------------------------------------
