------------------------------------------------------------
          Invoking FHI-aims ...

          When using FHI-aims, please cite the following reference:

            Volker Blum, Ralf Gehrke, Felix Hanke, Paula Havu,
            Ville Havu, Xinguo Ren, Karsten Reuter, and Matthias Scheffler,
            'Ab Initio Molecular Simulations with Numeric Atom-Centered Orbitals',
            Computer Physics Communications 180, 2175-2196 (2009)

          In addition, many other developments in FHI-aims are likely important for
          your particular application. If so, please cite them. A partial list of references
          is written at the end of this file. Thank you for giving credit to the authors
          of these developments.

          For general information about FHI-aims please find us at

            https://fhi-aims.org

          Online tutorials can be found at

            https://fhi-aims-club.gitlab.io/tutorials/tutorials-overview/

          For any questions about FHI-aims, please visit our slack channel at

            https://fhi-aims.slack.com

          and our main development and support site at

            https://aims-git.rz-berlin.mpg.de .

          The latter site, in particular, has a wiki to collect information, as well
          as an issue tracker to log discussions, suggest improvements, and report issues
          or bugs. https://aims-git.rz-berlin.mpg.de is also the main development site
          of the project and all new and updated code versions can be obtained there.
          Please send an email to aims-coordinators@ms1p.org and we will add
          you to these sites. They are for you and everyone is welcome there.

------------------------------------------------------------



  Date     :  20260327, Time     :  151212.533
  Time zero on CPU 1             :   0.343540000000000E-01  s.
  Internal wall clock time zero  :           543856332.533  s.

  FHI-aims created a unique identifier for this run for later identification
  aims_uuid : C5B905DC-DC23-4B05-AD67-4C3160CFC613

  Build configuration of the current instance of FHI-aims
  -------------------------------------------------------
  FHI-aims version      : 260316
  Commit number         : 8d3b6975b
  CMake host system     : Darwin-24.6.0
  CMake version         : 4.3.0
  Fortran compiler      : /opt/homebrew/Cellar/mpich/4.3.0/bin/mpifort (GNU) version 13.4.0
  Fortran compiler flags: -fc=gfortran-13 -O3 -fallow-argument-mismatch -ffree-line-length-none -Wl,-ld_classic -Wl,-lstdc++ -O2 -g
  C compiler            : /opt/homebrew/Cellar/mpich/4.3.0/bin/mpicc (GNU) version 13.4.0
  C compiler flags      : -cc=gcc-13 -O3 -Wl,-ld_classic -O2 -g -DNDEBUG
  C++ compiler          : /opt/homebrew/Cellar/mpich/4.3.0/bin/mpicxx (GNU) version 13.4.0
  C++ compiler flags    : -cxx=g++-13 -O3 -Wl,-ld_classic -O2 -g -DNDEBUG
  HIP compiler          :
  HIP compiler flags    :
  HIP GPU arch          :
  Using MPI
  Using ScaLAPACK
  Using LibXC
  Using i-PI
  Using RLSY
  Using GREENX
  Linking against: /opt/packages/scalapack/2.2.0/gcc-13.4.0-mpich-4.3.0-openblas/libscalapack.a
                   /opt/homebrew/Cellar/openblas/0.3.29/lib/libopenblas.dylib

  Using        1 parallel tasks.
  Task        0 on host taiyi reporting.

  Obtaining array dimensions for all initial allocations:
  
  -----------------------------------------------------------------------
  Parsing control.in (first pass over file, find array dimensions only).
  The contents of control.in will be repeated verbatim below
  unless switched off by setting 'verbatim_writeout .false.' .
  in the first line of control.in .
  -----------------------------------------------------------------------
  
  #%FHI-aims
  
  # General setting
  xc               pbe
  relativistic     atomic_zora scalar
  occupation_type  gaussian 0.001
  basis_threshold  1.e-5
  
  # Use periodic GW
  qpe_calc         gw_expt
  freq_grid_type   minimax
  frequency_points 6
  anacon_type      1
  
  # Kgrids
  k_grid 3 3 3
  
  # # Compute QPE for all states
  # state_upper_limit 100000
  
  output librpa
  
  # [insert species for Mg and O below]
  
  ################################################################################
  #
  #  FHI-aims code project
  #  VB, Fritz-Haber Institut, 2009
  #
  #  Suggested "light" defaults for O atom (to be pasted into control.in file)
  #  Be sure to double-check any results obtained with these settings for post-processing,
  #  e.g., with the "tight" defaults and larger basis sets.
  #
  ################################################################################
    species        O
  #     global species definitions
      nucleus             8
      mass                15.9994
  #
      l_hartree           4
  #
      cut_pot             3.5  1.5  1.0
      basis_dep_cutoff    1e-4
  #
      radial_base         36 5.0
      radial_multiplier   1
       angular_grids specified
        division   0.2659   50
        division   0.4451  110
        division   0.6052  194
        division   0.7543  302
  #      division   0.8014  434
  #      division   0.8507  590
  #      division   0.8762  770
  #      division   0.9023  974
  #      division   1.2339 1202
  #      outer_grid 974
        outer_grid 302
  ################################################################################
  #
  #  Definition of "minimal" basis
  #
  ################################################################################
  #     valence basis states
      valence      2  s   2.
      valence      2  p   4.
  #     ion occupancy
      ion_occ      2  s   1.
      ion_occ      2  p   3.
  ################################################################################
  #
  #  Suggested additional basis functions. For production calculations,
  #  uncomment them one after another (the most important basis functions are
  #  listed first).
  #
  #  Constructed for dimers: 1.0 A, 1.208 A, 1.5 A, 2.0 A, 3.0 A
  #
  ################################################################################
  #  "First tier" - improvements: -699.05 meV to -159.38 meV
       hydro 2 p 1.8
  #     hydro 3 d 7.6
  #     hydro 3 s 6.4
  #  "Second tier" - improvements: -49.91 meV to -5.39 meV
  #     hydro 4 f 11.6
  #     hydro 3 p 6.2
  #     hydro 3 d 5.6
  #     hydro 5 g 17.6
  #     hydro 1 s 0.75
  #  "Third tier" - improvements: -2.83 meV to -0.50 meV
  #     ionic 2 p auto
  #     hydro 4 f 10.8
  #     hydro 4 d 4.7
  #     hydro 2 s 6.8
  #  "Fourth tier" - improvements: -0.40 meV to -0.12 meV
  #     hydro 3 p 5
  #     hydro 3 s 3.3
  #     hydro 5 g 15.6
  #     hydro 4 f 17.6
  #     hydro 4 d 14
  # Further basis functions - -0.08 meV and below
  #     hydro 3 s 2.1
  #     hydro 4 d 11.6
  #     hydro 3 p 16
  #     hydro 2 s 17.2
  ################################################################################
  #
  #  FHI-aims code project
  #  VB, Fritz-Haber Institut, 2009
  #
  #  Suggested "light" defaults for Mg atom (to be pasted into control.in file)
  #  Be sure to double-check any results obtained with these settings for post-processing,
  #  e.g., with the "tight" defaults and larger basis sets.
  #
  ################################################################################
    species        Mg
  #     global species definitions
      nucleus             12
      mass                24.3050
  #
      l_hartree           4
  #
      cut_pot             4.0          1.5  1.0
      basis_dep_cutoff    1e-4
  #
      radial_base         40 5.5
      radial_multiplier   1
      angular_grids       specified
        division   0.7029   50
        division   0.9689  110
        division   1.1879  194
        division   1.3129  302
  #      division   1.4867  434
  #      division   1.6018  590
  #      division   1.8611  770
  #      division   1.9576  974
  #      division   2.2261 1202
  #      outer_grid   974
        outer_grid   302
  ################################################################################
  #
  #  Definition of "minimal" basis
  #
  ################################################################################
  #     valence basis states
      valence      3  s   2.
      valence      2  p   6.
  #     ion occupancy
      ion_occ      2  s   2.
      ion_occ      2  p   6.
  ################################################################################
  #
  #  Suggested additional basis functions. For production calculations,
  #  uncomment them one after another (the most important basis functions are
  #  listed first).
  #
  #  Constructed for dimers: 2.125 A, 2.375 A, 2.875 A, 3.375 A, 4.5 A
  #
  ################################################################################
  #  "First tier" - improvements: -230.76 meV to -21.94 meV
       hydro 2 p 1.5
  #     ionic 3 d auto
  #     hydro 3 s 2.4
  #  "Second tier" - improvements: -5.43 meV to -1.64 meV
  #     hydro 4 f 4.3
  #     hydro 2 p 3.4
  #     hydro 4 s 11.2
  #     hydro 3 d 6.2
  #  "Third tier" - improvements: -0.92 meV to -0.22 meV
  #     hydro 2 s 0.6
  #     hydro 3 p 4.8
  #     hydro 4 f 7.4
  #     hydro 5 g 6.6
  #     hydro 2 p 1.6
  #     hydro 3 d 1.8
  #  "Fourth tier" - improvements: -0.09 meV to -0.05 meV
  #     hydro 4 p 0.45
  #     hydro 5 g 10.4
  #     hydro 2 s 12.4
  #     hydro 4 d 1.7
  
  
  -----------------------------------------------------------------------
  Completed first pass over input file control.in .
  -----------------------------------------------------------------------
  
  
  -----------------------------------------------------------------------
  Parsing geometry.in (first pass over file, find array dimensions only).
  The contents of geometry.in will be repeated verbatim below
  unless switched off by setting 'verbatim_writeout .false.' .
  in the first line of geometry.in .
  -----------------------------------------------------------------------
  
  #
  # Mg1 O1
  # reference:
  #
  atom_frac     0.000000000     0.000000000     0.000000000 Mg
  atom_frac     0.500000000     0.500000000     0.500000000 O
  lattice_vector     0.000000000     2.106376658     2.106376658
  lattice_vector     2.106376658     0.000000000     2.106376658
  lattice_vector     2.106376658     2.106376658     0.000000000
  
  -----------------------------------------------------------------------
  Completed first pass over input file geometry.in .
  -----------------------------------------------------------------------
  

  Basic array size parameters:
  | Number of species                 :        2
  | Number of atoms                   :        2
  | Number of lattice vectors         :        3
  | Max. basis fn. angular momentum   :        1
  | Max. atomic/ionic basis occupied n:        3
  | Max. number of basis fn. types    :        2
  | Max. radial fns per species/type  :        4
  | Max. logarithmic grid size        :     1334
  | Max. radial integration grid size :       40
  | Max. angular integration grid size:      302
  | Max. angular grid division number :        8
  | Radial grid for Hartree potential :     1334
  | Number of spin channels           :        1

  Definition of standardized fundamental physical constants in this FHI-aims run:
  | Using the set of values used in FHI-aims up to 2024, which combines values from
  | different CODATA sets - see constants.f90.
  | Use the 'codata' keyword in control.in to change this selection.

  Memory overcommitment: We could not find /proc/sys/vm/overcommit_memory on your system.

------------------------------------------------------------
          Reading file control.in.
------------------------------------------------------------
  XC: Using PBE gradient-corrected functionals.
  Scalar relativistic treatment of kinetic energy: on-site free-atom approximation to ZORA.
  Occupation type: Gaussian broadening, width =   0.100000E-02 eV.
  Threshold for basis singularities:  0.1000E-04
  Periodic GW calculations will be started if finite k point sampling is also set. Please be warned that periodic GW is only at the experimental stage and is still under testing. Be cautious about your results.
  Using minimax frequency grid.
  Number of frequency points used for the self-energy calculation:      6
  Using Pade approximation for analytical continuation.
  Found k-point grid:         3         3         3

  Reading configuration options for species O                   .
  | Found nuclear charge :   8.0000
  | Found atomic mass :    15.999400000000000      amu
  | Found l_max for Hartree potential  :   4
  | Found cutoff potl. onset [A], width [A], scale factor :    3.50000    1.50000    1.00000
  | Threshold for basis-dependent cutoff potential is   0.100000E-03
  | Found data for basic radial integration grid :    36 points, outermost radius =    5.000 A
  | Found multiplier for basic radial grid :   1
  | Found angular grid specification: user-specified.
  | Specified grid contains     5 separate shells.
  | Check grid settings after all constraints further below.
  | Found free-atom valence shell :  2 s   2.000
  | Found free-atom valence shell :  2 p   4.000
  | No ionic wave fns used. Skipping ion_occ.
  | No ionic wave fns used. Skipping ion_occ.
  | Found hydrogenic basis function :  2 p   1.800
 | Encountered keyword species, ending the description of species O                   .
  Species O                   : Missing cutoff potential type.
  Defaulting to exp(1/x)/(1-x)^2 type cutoff potential.
  Species O : No 'logarithmic' tag. Using default grid for free atom:
  | Default logarithmic grid data [bohr] : 0.1000E-03 0.1000E+03 0.1012E+01
  Species O : On-site basis accuracy parameter (for Gram-Schmidt orthonormalisation) not specified.
  Using default value basis_acc =  0.1000000E-03.
  Species O                   : Using default innermost maximum threshold i_radial=  2 for radial functions.
  Species O                   : Default cutoff onset for free atom density etc. : 0.35000000E+01 AA.
  Species O                   : Basic radial grid will be enhanced according to radial_multiplier =   1, to contain    36 grid points.

  Reading configuration options for species Mg                  .
  | Found nuclear charge :  12.0000
  | Found atomic mass :    24.305000000000000      amu
  | Found l_max for Hartree potential  :   4
  | Found cutoff potl. onset [A], width [A], scale factor :    4.00000    1.50000    1.00000
  | Threshold for basis-dependent cutoff potential is   0.100000E-03
  | Found data for basic radial integration grid :    40 points, outermost radius =    5.500 A
  | Found multiplier for basic radial grid :   1
  | Found angular grid specification: user-specified.
  | Specified grid contains     5 separate shells.
  | Check grid settings after all constraints further below.
  | Found free-atom valence shell :  3 s   2.000
  | Found free-atom valence shell :  2 p   6.000
  | No ionic wave fns used. Skipping ion_occ.
  | No ionic wave fns used. Skipping ion_occ.
  | Found hydrogenic basis function :  2 p   1.500
  Species Mg                  : Missing cutoff potential type.
  Defaulting to exp(1/x)/(1-x)^2 type cutoff potential.
  Species Mg: No 'logarithmic' tag. Using default grid for free atom:
  | Default logarithmic grid data [bohr] : 0.1000E-03 0.1000E+03 0.1012E+01
  Species Mg: On-site basis accuracy parameter (for Gram-Schmidt orthonormalisation) not specified.
  Using default value basis_acc =  0.1000000E-03.
  Species Mg                  : Using default innermost maximum threshold i_radial=  2 for radial functions.
  Species Mg                  : Default cutoff onset for free atom density etc. : 0.40000000E+01 AA.
  Species Mg                  : Basic radial grid will be enhanced according to radial_multiplier =   1, to contain    40 grid points.

  Finished reading input file 'control.in'.

------------------------------------------------------------


------------------------------------------------------------
          Reading geometry description geometry.in.
------------------------------------------------------------
  | The smallest distance between any two atoms is         2.10637666 AA.
  | The first atom of this pair is atom number                      2 .
  | The second atom of this pair is atom number                     1 .
  | Wigner-Seitz cell of the first atom image           0     0     1 .
  | (The Wigner-Seitz cell of the second atom is 0 0 0  by definition.)

  Symmetry information by spglib:
  | Precision set to  0.1E-04
  | Number of Operations  : 48
  | Space group           : 225
  | International         : Fm-3m
  | Schoenflies           : Oh^5
  Input structure read successfully.
  The structure contains        2 atoms,  and a total of         20.000 electrons.

  Input geometry:
  | Unit cell:
  |        0.00000000        2.10637666        2.10637666
  |        2.10637666        0.00000000        2.10637666
  |        2.10637666        2.10637666        0.00000000
  | Atomic structure:
  |       Atom                x [A]            y [A]            z [A]
  |    1: Species Mg            0.00000000        0.00000000        0.00000000
  |    2: Species O             2.10637666        2.10637666        2.10637666

  Lattice parameters for 3D lattice (in Angstroms) :     2.978866    2.978866    2.978866
  Angle(s) between unit vectors (in degrees)       :    60.000000   60.000000   60.000000


  Quantities derived from the lattice vectors (in Angstrom^-1):
  | Reciprocal lattice vector 1: -1.491468  1.491468  1.491468
  | Reciprocal lattice vector 2:  1.491468 -1.491468  1.491468
  | Reciprocal lattice vector 3:  1.491468  1.491468 -1.491468
  | Unit cell volume                               :   0.186912E+02  Angstrom^3

  Fractional coordinates:
                         L1                L2                L3
       atom_frac         0.00000000        0.00000000        0.00000000  Mg
       atom_frac         0.50000000        0.50000000        0.50000000  O

  Slab Identifier: This seems to be a bulk system.

  Finished reading input file 'geometry.in'.



  Consistency checks for stacksize environment parameter are next.

  | Maximum stacksize for task 0: 63 [Mb]
   *** Stacksize is not set to unlimited. This might cause problems...
  | Current stacksize for task 0: 63 [Mb]

  Consistency checks for the contents of control.in are next.

  MPI_IN_PLACE appears to work with this MPI implementation.
  | Keeping use_mpi_in_place .true. (see manual).
  Explicit treatment of the Coulomb operator is needed, but the RI method is not specified.
  Coulomb operator: Defaulting to 'LVL fast' resolution of identity - RI_type = LVL_fast
  Species O: Using default value for prodbas_acc =   1.000000E-04.
  Species O: Using default value max_l_prodbas =    20.
  Species Mg: Using default value for prodbas_acc =   1.000000E-04.
  Species Mg: Using default value max_l_prodbas =    20.
  Target number of points in a grid batch is not set. Defaulting to  100
  Method for grid partitioning is not set. Defaulting to parallel hash+maxmin partitioning.
  Batch size limit is not set. Defaulting to    200
  By default, will store active basis functions for each batch.
  If in need of memory, prune_basis_once .false. can be used to disable this option.
  communication_type for Hartree potential was not specified.
  Defaulting to calc_hartree .
  Defaulting to Pulay charge density mixer.
  Pulay mixer: Number of relevant iterations not set.
  Defaulting to    8 iterations.
  Pulay mixer: Number of initial linear mixing iterations not set.
  Defaulting to    0 iterations.
  Work space size for distributed Hartree potential not set.
  Defaulting to   0.200000E+03 MB.
  Mixing parameter for charge density mixing has not been set.
  Using default: charge_mix_param =     0.0500.
  The mixing parameter will be adjusted in iteration number     2 of each s.c.f. cycle (i.e., each geometry step).
  Algorithm-dependent basis array size parameters:
  | n_max_pulay                         :        8
  Maximum number of self-consistency iterations not provided.
  Presetting  1000 iterations.
  Presetting      1001 iterations before the initial mixing cycle
  is restarted anyway using the sc_init_iter criterion / keyword.
  Presetting a factor      1.000 between actual scf density residual
  and density convergence criterion sc_accuracy_rho below which sc_init_iter
  takes no effect.
 * No s.c.f. convergence criteria (sc_accuracy_*) were provided in control.in.
 * The run will proceed with a reasonable default guess, but please check whether.
 * the s.c.f. cycles seem to take too much or too little time.
  Calculation of forces was not defined in control.in. No forces will be calculated.
  Geometry relaxation not requested: no relaxation will be performed.
 * Notice: The s.c.f. convergence criterion sc_accuracy_rho was not provided.
 * We used to stop in this case, and ask the user to provide reasonable
 * scf convergence criteria. However, this led some users to employ criteria
 * that led to extremely long run times, e.g., for simple relaxation.
 * We now preset a default value for sc_accuracy_rho if it is not set.
 * You may still wish to check if this setting is too tight or too loose for your needs.
 * Based on n_atoms and forces and force-correction status, FHI-aims chose sc_accuracy_rho =  0.100000E-05 .
  No accuracy limit for integral partition fn. given. Defaulting to  0.1000E-14.
  No threshold value for u(r) in integrations given. Defaulting to  0.1000E-05.
  No accuracy for occupation numbers given. Defaulting to  0.1000E-12.
  No threshold value for occupation numbers given. Defaulting to  0.0000E+00.
  No accuracy for fermi level given. Defaulting to  0.1000E-19.
  Maximum # of iterations to find E_F not set. Defaulting to  200.
  Preferred method for the eigenvalue solver ('KS_method') not specified in 'control.in'.
  Defaulting to serial version LAPACK (via ELSI).
  partition_type (choice of integration weights) for integrals was not specified.
  | Using a version of the partition function of Stratmann and coworkers ('stratmann_sparse').
  | At each grid point, the set of atoms used to build the partition table is smoothly restricted to
  | only those atoms whose free-atom density would be non-zero at that grid point.
  Partitioning for Hartree potential was not defined. Using partition_type for integrals.
  | Adjusted default value of keyword multip_moments_threshold to:       0.10000000E-11
  | This value may affect high angular momentum components of the Hartree potential in periodic systems.
  Using 2025 definition of centers list for evaluation of the Stratmann partition function.
  Spin handling was not defined in control.in. Defaulting to unpolarized case.
  Threshold for auxiliary basis singularities not set.
  Default threshold for auxiliary basis singularities:  0.1000E-04
  Use default threshold for vanishing multipole moments of auxiliary basis:  0.1000E-07
  * Periodic GW calculations will start ......
  * nk > 1 for all reciprocal lattice vectors, finite size correction switched on by default
  * - Head correction switched on, q->0 in direction:   0.577350  0.577350  0.577350
  * - Wing correction switched off
  * Setting default energy window for Kohn-Sham states to calculate QPE to [VBM - 20 eV, CBM + 10 eV].
  Eigen-decomposition algorithm is used to invert dielectric matrix in periodic GW.
  [LibRPA file interface] Arrays for subsequent LibRPA calculation will be written
  [LibRPA file interface] See manual section 'Interface to LibRPA'
  [LibRPA file interface] Will generate output in format for current master branch
  [LibRPA file interface] Large arrays will be written in binary format: triple coefficients (Cs), Coulomb matrices (coulomb_mat, coulomb_cut)
  [LibRPA file interface] Enabled output dielectric functions for periodic GW
  [LibRPA file interface] Enabled output RI coefficients
  [LibRPA file interface] Will attempt to fold real-space RI coefficients to Born-von Karman cells
  [LibRPA file interface] Switch off filtering of real-space RI coefficients for export
  [LibRPA file interface] Enabled output Coulomb matrices
  [LibRPA file interface] Enabled output exchange-correlation potential
  [LibRPA file interface] Enabled output non-local exchange in vxc
  No q(lm)/r^(l+1) cutoff set for long-range Hartree potential.
  | Using default value of  0.100000E-09 .
  | Verify using the multipole_threshold keyword.
  Defaulting to new monopole extrapolation.
  Density update method: automatic selection selected.
  Using density matrix based charge density update.
  Using density matrix based charge density update.
  Using packed matrix style: index .
  Threshold of packed matrixes:  0.000000E+00
** WARNING:
 * This is an experimental version of the periodic GW implemenation.
 * We are still actively working on it to improve the efficiency and reliability.
 * Do not rely on any results you obtained from periodic GW calculation.
** END OF WARNING
  Defaulting to use full k-point grid (no symmetry reduction).
  Charge integration errors on the 3D integration grid will be compensated
  by explicit normalization and distribution of residual charges.
  Use the "compensate_multipole_errors" flag to change this behaviour.
  Default to 1D ("use_logsbt") integrations for auxiliary 2-center integrals.
  Default onset of logarithmic r-grid for SBT is -38.000000000000
  Default onset of logarithmic k-grid for SBT is -25.000000000000
  Default range of logarithmic r- and k-grid for SBT is  45.000000000000
  Default number of logarithmic r- and k-grid for SBT is   4096
  Set 'collect_eigenvectors' to be '.true.' for all serial calculations. This is mandatory.
  Set 'collect_eigenvectors' to be '.true.' for GW/RPA/MP2, SCREX/COHSEX cluster calculations
  Set 'collect_eigenvectors' to be '.true.' for qpe_calc (quasiparticle energy).
  Set 'collect_eigenvectors' to be '.true.' for KS_method lapack_fast and serial.
  Found potential conflicts with setting 'use_local_index' for this calculation. Will not set it.

  Consistency checks for the contents of geometry.in are next.


  Range separation radius for Ewald summation (hartree_convergence_parameter):      2.89415893 bohr.
  Number of empty states per atom not set in control.in .
  | Since you are using a method that relies on the unoccupied spectrum
  | (MP2,GW,RPA et al.), will use the full Hamiltonian size (see below)
  | as the max. possible number of states (occupied plus empty).

  Structure-dependent array size parameters: 
  | Maximum number of distinct radial functions  :        9
  | Maximum number of basis functions            :       17
  | Number of Kohn-Sham states (occupied + empty):       17
------------------------------------------------------------
  Setting Coulomb cut-width to  1.091868692359 * rcut.
  Setting Coulomb cutting radius rcut to  4.468299655815 A.

  Checking k-grid inconsistencies now:
  | k-point density for reciprocal lattice vector 1 is    1.16 nkpts / Angstrom^-1
  | k-point density for reciprocal lattice vector 2 is    1.16 nkpts / Angstrom^-1
  | k-point density for reciprocal lattice vector 3 is    1.16 nkpts / Angstrom^-1

  | Ratio of k-point densities for reciprocal lattice vectors 1 vs 2 is    1.00
  | Ratio of k-point densities for reciprocal lattice vectors 1 vs 3 is    1.00
  | Ratio of k-point densities for reciprocal lattice vectors 2 vs 3 is    1.00

  * The specified k_grid leads to a nearly homogenous k-grid density in non-vacuum directions,
  * and seems sensible.

  | Checks passed.

  Performing system and environment tests:
  | Environment variable OMP_NUM_THREADS correctly set to 1.
  | Checking for ScaLAPACK...
  | Testing pdtran()...
  | All pdtran() tests passed.
  | CPU consistency checks disabled for non-Linux or unknown build system
  

------------------------------------------------------------
          Preparing all fixed parts of the calculation.
------------------------------------------------------------
  Determining machine precision:
     2.2250738585072014E-308
  Setting up grids for atomic and cluster calculations.

  Creating wave function, potential, and density for free atoms.
  Runtime choices for atomic solver:
  | atomic solver xc        : PBE
  | compute density gradient: 1
  | compute kinetic density : F

  Species: O

  List of occupied orbitals and eigenvalues:
    n    l              occ      energy [Ha]    energy [eV]
    1    0           2.0000       -18.926989      -515.0296
    2    0           2.0000        -0.880247       -23.9527
    2    1           4.0000        -0.331514        -9.0210


  Species: Mg

  List of occupied orbitals and eigenvalues:
    n    l              occ      energy [Ha]    energy [eV]
    1    0           2.0000       -46.359170     -1261.4972
    2    0           2.0000        -2.927498       -79.6613
    3    0           2.0000        -0.167982        -4.5710
    2    1           6.0000        -1.706030       -46.4234


  Adding cutoff potential to free-atom effective potential.
  Creating fixed part of basis set: Ionic, confined, hydrogenic.

  O                    hydrogenic:

  List of hydrogenic basis orbitals: 
    n    l      effective z      eigenvalue [eV]  inner max. [A]     outer max. [A]     outer radius [A]   
    2    1         1.800000       -10.9749           1.164242           1.164242           4.578029


  Mg                   hydrogenic:

  List of hydrogenic basis orbitals: 
    n    l      effective z      eigenvalue [eV]  inner max. [A]     outer max. [A]     outer radius [A]   
    2    1         1.500000        -7.5955           1.395712           1.395712           5.100062

  Creating atomic-like basis functions for current effective potential.

  Species O                   :

  List of atomic basis orbitals and eigenvalues:
    n    l      energy [Ha]    energy [eV]    outer radius [A]
    1    0       -18.926989      -515.0296       1.415765
    2    0        -0.880247       -23.9527       4.413171
    2    1        -0.331514        -9.0210       4.522403


  Species Mg                  :

  List of atomic basis orbitals and eigenvalues:
    n    l      energy [Ha]    energy [eV]    outer radius [A]
    1    0       -46.359170     -1261.4972       0.921046
    2    0        -2.927498       -79.6613       3.621735
    3    0        -0.167982        -4.5710       5.100062
    2    1        -1.706030       -46.4234       4.404175

  Assembling full basis from fixed parts.
  | Species O :   atomic orbital   1 s accepted.
  | Species O :   atomic orbital   2 s accepted.
  | Species O :   atomic orbital   2 p accepted.
  | Species O :    hydro orbital   2 p accepted.
  | Species Mg :   atomic orbital   1 s accepted.
  | Species Mg :   atomic orbital   2 s accepted.
  | Species Mg :   atomic orbital   3 s accepted.
  | Species Mg :   atomic orbital   2 p accepted.
  | Species Mg :    hydro orbital   2 p accepted.

  Basis size parameters after reduction:
  | Total number of radial functions:        9
  | Total number of basis functions :       17

  Per-task memory consumption for arrays in subroutine allocate_ext:
  |           3.074500MB.
  Testing on-site integration grid accuracy.
  |  Species  Function  <phi|h_atom|phi> (log., in eV)  <phi|h_atom|phi> (rad., in eV)
           1        1               -515.0295626295               -515.0294562738
           1        2                -23.9527496044                -23.9527504259
           1        3                 -9.0211123393                 -9.0212703513
           1        4                  8.3047696391                  8.2854840999
           2        5              -1261.4972086064              -1261.4966102663
           2        6                -79.6612686792                -79.6612661850
           2        7                 -4.5766449847                 -4.5764463354
           2        8                -46.4234362291                -46.4234361907
           2        9                 -0.5282558506                 -0.5281575826

  Preparing densities etc. for the partition functions (integrals / Hartree potential).

  Preparations completed.
  max(cpu_time)          :      0.057 s.
  Wall clock time (cpu1) :      0.058 s.
------------------------------------------------------------

  Initializing index lists of integration centers etc. from given atomic structure:
  Mapping all atomic coordinates to central unit cell.

  Initializing the k-points
  | Number of k-points                             :        27
  The eigenvectors in the calculations are COMPLEX.
  | K-points in task   0:        27
  | Consuming         11 KiB for k_phase_exx.
  | Number of basis functions in the Hamiltonian integrals       :      1127
  | Number of basis functions in a single unit cell              :        17
  | Number of centers in hartree potential                       :      1097
  | Number of centers in hartree multipole                       :       836
  | Number of centers in electron density summation              :       585
  | Number of centers in basis integrals                         :       633
  | Number of centers in integrals                               :       203
  | Number of centers in hamiltonian                             :       612
  | Number of centers in partition table from touching 0-cell    :       203
  | Number of centers in partition table total                   :       633
  | Consuming        153 KiB for k_phase.
  | Number of super-cells (origin) [n_cells]                     :        2197
  | Number of super-cells (after PM_index) [n_cells]             :         364
  | Number of super-cells in hamiltonian [n_cells_in_hamiltonian]:         364
  | Size of matrix packed + index [n_hamiltonian_matrix_size]    :       25852

------------------------------------------------------------
          Begin self-consistency loop: Initialization.

          Date     :  20260327, Time     :  151212.674
------------------------------------------------------------
  | Estimated reciprocal-space cutoff momentum G_max:         3.27104273 bohr^-1 .
  | Reciprocal lattice points for long-range Hartree potential:      64
  Partitioning the integration grid into batches with parallel hashing+maxmin method.
  | Number of batches:      128
  | Maximal batch size:      96
  | Minimal batch size:      91
  | Average batch size:      93.250
  | Standard deviation of batch sizes:       1.474

  Integration load balanced across     1 MPI tasks.
  Work distribution over tasks is as follows:
  Task     0 has      11936 integration points.
  Initializing partition tables, free-atom densities, potentials, etc. across the integration grid (initialize_grid_storage).
  | initialize_grid_storage: Actual outermost partition radius vs. multipole_radius_free
  | (-- VB: in principle, multipole_radius_free should be larger, hence this output)
  | Species        1: Confinement radius =              4.999999999999999 AA, multipole_radius_free =              5.048384829883283 AA.
  | Species        1: outer_partition_radius set to              5.048384829883283 AA .
  | Species        2: Confinement radius =              5.500000000000000 AA, multipole_radius_free =              5.555717568450569 AA.
  | Species        2: outer_partition_radius set to              5.555717568450569 AA .
  | The sparse table of interatomic distances needs       2198.75 kbyte instead of      3205.51 kbyte of memory.
  | Net number of integration points:    11936
  | of which are non-zero points    :     9150
  | Numerical average free-atom electrostatic potential    :    -17.51651321 eV
  Renormalizing the initial density to the exact electron count on the 3D integration grid.
  | Initial density: Formal number of electrons (from input files) :      20.0000000000
  | Integrated number of electrons on 3D grid     :      20.0033297978
  | Charge integration error                      :       0.0033297978
  | Normalization factor for density and gradient :       0.9998335378
  Renormalizing the free-atom superposition density to the exact electron count on the 3D integration grid.
  | Formal number of electrons (from input files) :      20.0000000000
  | Integrated number of electrons on 3D grid     :      20.0033297978
  | Charge integration error                      :       0.0033297978
  | Normalization factor for density and gradient :       0.9998335378
  Obtaining max. number of non-zero basis functions in each batch (get_n_compute_maxes).
  | Maximal number of non-zero basis functions:      508 in task     0
  Allocating        0.119 MB for KS_eigenvector_complex
  Integrating Hamiltonian matrix: batch-based integration.
  Time summed over all CPUs for integration: real work        0.272 s, elapsed        0.272 s
  Integrating overlap matrix.
  Time summed over all CPUs for integration: real work        0.179 s, elapsed        0.179 s

  Updating Kohn-Sham eigenvalues and eigenvectors using ELSI and the (modified) LAPACK eigensolver.
  Singularity check in k-point 1, task 0 (analysis for other k-points/tasks may follow below):
  Overlap matrix is not singular
  | Lowest and highest eigenvalues :  0.3993E-01,  0.7206E+01
  Finished singularity check of overlap matrix
  | Time :     0.001 s
  Starting LAPACK eigensolver
  Finished Cholesky decomposition
  | Time :     0.000 s
  Finished transformation to standard eigenproblem
  | Time :     0.000 s
  Finished solving standard eigenproblem
  | Time :     0.000 s
  Finished back-transformation of eigenvectors
  | Time :     0.000 s

  Obtaining occupation numbers and electronic chemical potential using ELSI.
  | Note that, for insulating systems, the printed 'chemical potential' value is not uniquely defined.
  | It can be anywhere in the energy gap, as long as it correctly separates occupied and unoccupied states.
  | In systems with a gap, the physically relevant chemical potential is the VBM or HOMO.

  | Chemical potential (Fermi level):    -9.15754986 eV
  Writing Kohn-Sham eigenvalues.
  K-point:       1 at    0.000000    0.000000    0.000000 (in units of recip. lattice)

  State    Occupation    Eigenvalue [Ha]    Eigenvalue [eV]
      1       2.00000         -46.378662        -1262.02759
      2       2.00000         -19.037705         -518.04232
      3       2.00000          -2.955062          -80.41132
      4       2.00000          -1.733242          -47.16393
      5       2.00000          -1.733242          -47.16393
      6       2.00000          -1.733242          -47.16393
      7       2.00000          -1.083070          -29.47182
      8       2.00000          -0.462070          -12.57357
      9       2.00000          -0.462070          -12.57357
     10       2.00000          -0.462070          -12.57357
     11       0.00000          -0.210998           -5.74153
     12       0.00000           0.581039           15.81089
     13       0.00000           0.581039           15.81089
     14       0.00000           0.581039           15.81089
     15       0.00000           1.306994           35.56511
     16       0.00000           1.306994           35.56511
     17       0.00000           1.306994           35.56511

  What follows are estimated values for band gap, HOMO, LUMO, etc.
  | They are estimated on a discrete k-point grid and not necessarily exact.
  | For converged numbers, create a DOS and/or band structure plot on a denser k-grid.

  Highest occupied state (VBM) at    -12.57356543 eV (relative to internal zero)
  | Occupation number:      2.00000000
  | K-point:       1 at    0.000000    0.000000    0.000000 (in units of recip. lattice)

  Lowest unoccupied state (CBM) at    -5.74153429 eV (relative to internal zero)
  | Occupation number:      0.00000000
  | K-point:       1 at    0.000000    0.000000    0.000000 (in units of recip. lattice)

  The gap value is above 0.2 eV. Unless you are using a very sparse k-point grid,
  this system is most likely an insulator or a semiconductor.
  ESTIMATED overall HOMO-LUMO gap:      6.83203114 eV between HOMO at k-point 1 and LUMO at k-point 1
  | This appears to be a direct band gap.
  Calculating total energy contributions from superposition of free atom densities.

  Total energy components:
  | Sum of eigenvalues            :        -152.33019013 Ha       -4145.11537469 eV
  | XC energy correction          :         -25.01508212 Ha        -680.69501777 eV
  | XC potential correction       :          32.24175605 Ha         877.34282081 eV
  | Free-atom electrostatic energy:        -130.85716854 Ha       -3560.80472765 eV
  | Hartree energy correction     :          -0.00000000 Ha          -0.00000000 eV
  | Entropy correction            :          -0.00000000 Ha          -0.00000000 eV
  | ---------------------------
  | Total energy                  :        -275.96068474 Ha       -7509.27229930 eV
  | Total energy, T -> 0          :        -275.96068474 Ha       -7509.27229930 eV  <-- do not rely on this value for anything but (periodic) metals
  | Electronic free energy        :        -275.96068474 Ha       -7509.27229930 eV

  Derived energy quantities:
  | Kinetic energy                :         276.04739362 Ha        7511.63176803 eV
  | Electrostatic energy          :        -526.99299624 Ha      -14340.20904956 eV
  | Energy correction for multipole
  | error in Hartree potential    :           0.00000000 Ha           0.00000000 eV
  | Sum of eigenvalues per atom                           :       -2072.55768735 eV
  | Total energy (T->0) per atom                          :       -3754.63614965 eV  <-- do not rely on this value for anything but (periodic) metals
  | Electronic free energy per atom                       :       -3754.63614965 eV
  Initialize hartree_potential_storage
  Max. number of atoms included in rho_multipole:            2

  End scf initialization - timings             :  max(cpu_time)    wall_clock(cpu1)
  | Time for scf. initialization                :        0.947 s           0.948 s
  | Boundary condition initialization           :        0.063 s           0.064 s
  | Integration                                 :        0.450 s           0.451 s
  | Solution of K.-S. eqns.                     :        0.004 s           0.004 s
  | Grid partitioning                           :        0.029 s           0.029 s
  | Preloading free-atom quantities on grid     :        0.414 s           0.414 s
  | Free-atom superposition energy              :        0.049 s           0.049 s
  | Total energy evaluation                     :        0.000 s           0.000 s

  Partial memory accounting:
  | Current value for overall tracked memory usage:
  |   Minimum:        0.646 MB (on task 0)
  |   Maximum:        0.646 MB (on task 0)
  |   Average:        0.646 MB
  | Peak value for overall tracked memory usage:
  |   Minimum:        3.743 MB (on task 0 after allocating wave)
  |   Maximum:        3.743 MB (on task 0 after allocating wave)
  |   Average:        3.743 MB
  | Largest tracked array allocation so far:
  |   Minimum:        1.969 MB (hamiltonian_shell on task 0)
  |   Maximum:        1.969 MB (hamiltonian_shell on task 0)
  |   Average:        1.969 MB
  Note:  These values currently only include a subset of arrays which are explicitly tracked.
  The "true" memory usage will be greater.
------------------------------------------------------------
  Evaluating new KS density using the density matrix
  Evaluating density matrix
  Time summed over all CPUs for getting density from density matrix: real work        0.522 s, elapsed        0.522 s
  Integration grid: deviation in total charge (<rho> - N_e) =   1.278977E-13

  Time for density update prior                :  max(cpu_time)    wall_clock(cpu1)
  | self-consistency iterative process          :        0.523 s           0.523 s

------------------------------------------------------------
          Begin self-consistency iteration #    1

  Date     :  20260327, Time     :  151214.145
------------------------------------------------------------
  Pulay mixing of updated and previous charge densities.
  Renormalizing the density to the exact electron count on the 3D integration grid.
  | Formal number of electrons (from input files) :      20.0000000000
  | Integrated number of electrons on 3D grid     :      20.0000000000
  | Charge integration error                      :      -0.0000000000
  | Normalization factor for density and gradient :       1.0000000000

  Evaluating partitioned Hartree potential by multipole expansion.
  | Original multipole sum: apparent total charge =  -0.347025E-12
  | Sum of charges compensated after spline to logarithmic grids =   0.286948E-06
  | Analytical far-field extrapolation by fixed multipoles:
  | Hartree multipole sum: apparent total charge =  -0.346963E-12
  Summing up the Hartree potential.
  Time summed over all CPUs for potential: real work        0.166 s, elapsed        0.166 s
  | RMS charge density error from multipole expansion :   0.873168E-03
  | Average real-space part of the electrostatic potential :      0.07976225 eV

  Integrating Hamiltonian matrix: batch-based integration.
  Time summed over all CPUs for integration: real work        0.278 s, elapsed        0.278 s

  Updating Kohn-Sham eigenvalues and eigenvectors using ELSI and the (modified) LAPACK eigensolver.
  Starting LAPACK eigensolver
  Finished Cholesky decomposition
  | Time :     0.000 s
  Finished transformation to standard eigenproblem
  | Time :     0.000 s
  Finished solving standard eigenproblem
  | Time :     0.000 s
  Finished back-transformation of eigenvectors
  | Time :     0.000 s

  Obtaining occupation numbers and electronic chemical potential using ELSI.
  | Note that, for insulating systems, the printed 'chemical potential' value is not uniquely defined.
  | It can be anywhere in the energy gap, as long as it correctly separates occupied and unoccupied states.
  | In systems with a gap, the physically relevant chemical potential is the VBM or HOMO.

  | Chemical potential (Fermi level):    -8.87912064 eV
  Writing Kohn-Sham eigenvalues.
  K-point:       1 at    0.000000    0.000000    0.000000 (in units of recip. lattice)

  State    Occupation    Eigenvalue [Ha]    Eigenvalue [eV]
      1       2.00000         -46.386650        -1262.24497
      2       2.00000         -19.003310         -517.10638
      3       2.00000          -2.961608          -80.58944
      4       2.00000          -1.739763          -47.34136
      5       2.00000          -1.739763          -47.34136
      6       2.00000          -1.739763          -47.34136
      7       2.00000          -1.069497          -29.10250
      8       2.00000          -0.446272          -12.14367
      9       2.00000          -0.446272          -12.14367
     10       2.00000          -0.446272          -12.14367
     11       0.00000          -0.206332           -5.61457
     12       0.00000           0.580413           15.79384
     13       0.00000           0.580413           15.79384
     14       0.00000           0.580413           15.79384
     15       0.00000           1.318034           35.86554
     16       0.00000           1.318034           35.86554
     17       0.00000           1.318034           35.86554

  What follows are estimated values for band gap, HOMO, LUMO, etc.
  | They are estimated on a discrete k-point grid and not necessarily exact.
  | For converged numbers, create a DOS and/or band structure plot on a denser k-grid.

  Highest occupied state (VBM) at    -12.14366828 eV (relative to internal zero)
  | Occupation number:      2.00000000
  | K-point:       1 at    0.000000    0.000000    0.000000 (in units of recip. lattice)

  Lowest unoccupied state (CBM) at    -5.61457299 eV (relative to internal zero)
  | Occupation number:      0.00000000
  | K-point:       1 at    0.000000    0.000000    0.000000 (in units of recip. lattice)

  The gap value is above 0.2 eV. Unless you are using a very sparse k-point grid,
  this system is most likely an insulator or a semiconductor.
  ESTIMATED overall HOMO-LUMO gap:      6.52909529 eV between HOMO at k-point 1 and LUMO at k-point 1
  | This appears to be a direct band gap.

  Total energy components:
  | Sum of eigenvalues            :        -152.21951740 Ha       -4142.10381625 eV
  | XC energy correction          :         -25.03510670 Ha        -681.23991428 eV
  | XC potential correction       :          32.26768280 Ha         878.04832348 eV
  | Free-atom electrostatic energy:        -130.85716854 Ha       -3560.80472765 eV
  | Hartree energy correction     :          -0.09966927 Ha          -2.71213883 eV
  | Entropy correction            :          -0.00000000 Ha          -0.00000000 eV
  | ---------------------------
  | Total energy                  :        -275.94377910 Ha       -7508.81227353 eV
  | Total energy, T -> 0          :        -275.94377910 Ha       -7508.81227353 eV  <-- do not rely on this value for anything but (periodic) metals
  | Electronic free energy        :        -275.94377910 Ha       -7508.81227353 eV

  Derived energy quantities:
  | Kinetic energy                :         276.15811994 Ha        7514.64478450 eV
  | Electrostatic energy          :        -527.06679235 Ha      -14342.21714375 eV
  | Energy correction for multipole
  | error in Hartree potential    :           0.00029469 Ha           0.00801880 eV
  | Sum of eigenvalues per atom                           :       -2071.05190812 eV
  | Total energy (T->0) per atom                          :       -3754.40613676 eV  <-- do not rely on this value for anything but (periodic) metals
  | Electronic free energy per atom                       :       -3754.40613676 eV
  Evaluating new KS density using the density matrix
  Evaluating density matrix
  Time summed over all CPUs for getting density from density matrix: real work        0.521 s, elapsed        0.521 s
  Integration grid: deviation in total charge (<rho> - N_e) =   4.263256E-14

  Self-consistency convergence accuracy:
  | Change of charge density      :  0.3006E+00
  | Change of unmixed KS density  :  0.1998E+02
  | Change of sum of eigenvalues  :  0.3012E+01 eV
  | Change of total energy        :  0.4600E+00 eV


------------------------------------------------------------
  End self-consistency iteration #     1       :  max(cpu_time)    wall_clock(cpu1)
  | Time for this iteration                     :        0.972 s           0.973 s
  | Charge density update                       :        0.522 s           0.523 s
  | Density mixing                              :        0.000 s           0.001 s
  | Hartree multipole update                    :        0.001 s           0.000 s
  | Hartree multipole summation                 :        0.167 s           0.167 s
  | Integration                                 :        0.278 s           0.279 s
  | Solution of K.-S. eqns.                     :        0.003 s           0.003 s
  | Total energy evaluation                     :        0.000 s           0.000 s

  Partial memory accounting:
  | Current value for overall tracked memory usage:
  |   Minimum:        7.294 MB (on task 0)
  |   Maximum:        7.294 MB (on task 0)
  |   Average:        7.294 MB
  | Peak value for overall tracked memory usage:
  |   Minimum:       11.495 MB (on task 0 after allocating gradient_basis_wave)
  |   Maximum:       11.495 MB (on task 0 after allocating gradient_basis_wave)
  |   Average:       11.495 MB
  | Largest tracked array allocation so far:
  |   Minimum:        2.186 MB (previous_rho_gradient_diff on task 0)
  |   Maximum:        2.186 MB (previous_rho_gradient_diff on task 0)
  |   Average:        2.186 MB
  Note:  These values currently only include a subset of arrays which are explicitly tracked.
  The "true" memory usage will be greater.
------------------------------------------------------------

------------------------------------------------------------
          Begin self-consistency iteration #    2

  Date     :  20260327, Time     :  151215.118
------------------------------------------------------------
  Pulay mixing of updated and previous charge densities.
  Renormalizing the density to the exact electron count on the 3D integration grid.
  | Formal number of electrons (from input files) :      20.0000000000
  | Integrated number of electrons on 3D grid     :      20.0000000000
  | Charge integration error                      :       0.0000000000
  | Normalization factor for density and gradient :       1.0000000000

  Evaluating partitioned Hartree potential by multipole expansion.
  | Original multipole sum: apparent total charge =  -0.195158E-12
  | Sum of charges compensated after spline to logarithmic grids =   0.198703E-05
  | Analytical far-field extrapolation by fixed multipoles:
  | Hartree multipole sum: apparent total charge =  -0.194322E-12
  Summing up the Hartree potential.
  Time summed over all CPUs for potential: real work        0.174 s, elapsed        0.174 s
  | RMS charge density error from multipole expansion :   0.611089E-02
  | Average real-space part of the electrostatic potential :      0.53694878 eV

  Integrating Hamiltonian matrix: batch-based integration.
  Time summed over all CPUs for integration: real work        0.277 s, elapsed        0.277 s

  Updating Kohn-Sham eigenvalues and eigenvectors using ELSI and the (modified) LAPACK eigensolver.
  Starting LAPACK eigensolver
  Finished Cholesky decomposition
  | Time :     0.001 s
  Finished transformation to standard eigenproblem
  | Time :     0.000 s
  Finished solving standard eigenproblem
  | Time :     0.000 s
  Finished back-transformation of eigenvectors
  | Time :     0.000 s

  Obtaining occupation numbers and electronic chemical potential using ELSI.
  | Note that, for insulating systems, the printed 'chemical potential' value is not uniquely defined.
  | It can be anywhere in the energy gap, as long as it correctly separates occupied and unoccupied states.
  | In systems with a gap, the physically relevant chemical potential is the VBM or HOMO.

  | Chemical potential (Fermi level):    -7.27152177 eV
  What follows are estimated values for band gap, HOMO, LUMO, etc.
  | They are estimated on a discrete k-point grid and not necessarily exact.
  | For converged numbers, create a DOS and/or band structure plot on a denser k-grid.

  Highest occupied state (VBM) at     -9.75982813 eV (relative to internal zero)
  | Occupation number:      2.00000000
  | K-point:       1 at    0.000000    0.000000    0.000000 (in units of recip. lattice)

  Lowest unoccupied state (CBM) at    -4.78321541 eV (relative to internal zero)
  | Occupation number:      0.00000000
  | K-point:       1 at    0.000000    0.000000    0.000000 (in units of recip. lattice)

  The gap value is above 0.2 eV. Unless you are using a very sparse k-point grid,
  this system is most likely an insulator or a semiconductor.
  ESTIMATED overall HOMO-LUMO gap:      4.97661273 eV between HOMO at k-point 1 and LUMO at k-point 1
  | This appears to be a direct band gap.

  Checking to see if s.c.f. parameters should be adjusted.
  The system likely has a gap. Increased the default Pulay mixing parameter (charge_mix_param). Value:   0.200000 .

  Total energy components:
  | Sum of eigenvalues            :        -151.62866558 Ha       -4126.02592019 eV
  | XC energy correction          :         -25.15212232 Ha        -684.42407157 eV
  | XC potential correction       :          32.41913027 Ha         882.16941897 eV
  | Free-atom electrostatic energy:        -130.85716854 Ha       -3560.80472765 eV
  | Hartree energy correction     :          -0.67483546 Ha         -18.36320728 eV
  | Entropy correction            :          -0.00000000 Ha          -0.00000000 eV
  | ---------------------------
  | Total energy                  :        -275.89366163 Ha       -7507.44850772 eV
  | Total energy, T -> 0          :        -275.89366163 Ha       -7507.44850772 eV  <-- do not rely on this value for anything but (periodic) metals
  | Electronic free energy        :        -275.89366163 Ha       -7507.44850772 eV

  Derived energy quantities:
  | Kinetic energy                :         276.69045812 Ha        7529.13044345 eV
  | Electrostatic energy          :        -527.43199743 Ha      -14352.15487960 eV
  | Energy correction for multipole
  | error in Hartree potential    :           0.00196183 Ha           0.05338412 eV
  | Sum of eigenvalues per atom                           :       -2063.01296009 eV
  | Total energy (T->0) per atom                          :       -3753.72425386 eV  <-- do not rely on this value for anything but (periodic) metals
  | Electronic free energy per atom                       :       -3753.72425386 eV
  Evaluating new KS density using the density matrix
  Evaluating density matrix
  Time summed over all CPUs for getting density from density matrix: real work        0.523 s, elapsed        0.523 s
  Integration grid: deviation in total charge (<rho> - N_e) =  -3.197442E-14

  Self-consistency convergence accuracy:
  | Change of charge density      :  0.2591E+00
  | Change of unmixed KS density  :  0.2993E-01
  | Change of sum of eigenvalues  :  0.1608E+02 eV
  | Change of total energy        :  0.1364E+01 eV


------------------------------------------------------------
  End self-consistency iteration #     2       :  max(cpu_time)    wall_clock(cpu1)
  | Time for this iteration                     :        0.980 s           0.980 s
  | Charge density update                       :        0.524 s           0.524 s
  | Density mixing                              :        0.000 s           0.000 s
  | Hartree multipole update                    :        0.001 s           0.001 s
  | Hartree multipole summation                 :        0.175 s           0.175 s
  | Integration                                 :        0.277 s           0.276 s
  | Solution of K.-S. eqns.                     :        0.003 s           0.004 s
  | Total energy evaluation                     :        0.000 s           0.000 s

  Partial memory accounting:
  | Current value for overall tracked memory usage:
  |   Minimum:        7.295 MB (on task 0)
  |   Maximum:        7.295 MB (on task 0)
  |   Average:        7.295 MB
  | Peak value for overall tracked memory usage:
  |   Minimum:       11.496 MB (on task 0 after allocating gradient_basis_wave)
  |   Maximum:       11.496 MB (on task 0 after allocating gradient_basis_wave)
  |   Average:       11.496 MB
  | Largest tracked array allocation so far:
  |   Minimum:        2.186 MB (previous_rho_gradient_diff on task 0)
  |   Maximum:        2.186 MB (previous_rho_gradient_diff on task 0)
  |   Average:        2.186 MB
  Note:  These values currently only include a subset of arrays which are explicitly tracked.
  The "true" memory usage will be greater.
------------------------------------------------------------

------------------------------------------------------------
          Begin self-consistency iteration #    3

  Date     :  20260327, Time     :  151216.099
------------------------------------------------------------
  Pulay mixing of updated and previous charge densities.
  Renormalizing the density to the exact electron count on the 3D integration grid.
  | Formal number of electrons (from input files) :      20.0000000000
  | Integrated number of electrons on 3D grid     :      20.0000000000
  | Charge integration error                      :       0.0000000000
  | Normalization factor for density and gradient :       1.0000000000

  Evaluating partitioned Hartree potential by multipole expansion.
  | Original multipole sum: apparent total charge =   0.554433E-13
  | Sum of charges compensated after spline to logarithmic grids =   0.243961E-05
  | Analytical far-field extrapolation by fixed multipoles:
  | Hartree multipole sum: apparent total charge =   0.552957E-13
  Summing up the Hartree potential.
  Time summed over all CPUs for potential: real work        0.176 s, elapsed        0.176 s
  | RMS charge density error from multipole expansion :   0.931817E-02
  | Average real-space part of the electrostatic potential :      0.58579212 eV

  Integrating Hamiltonian matrix: batch-based integration.
  Time summed over all CPUs for integration: real work        0.269 s, elapsed        0.269 s

  Updating Kohn-Sham eigenvalues and eigenvectors using ELSI and the (modified) LAPACK eigensolver.
  Starting LAPACK eigensolver
  Finished Cholesky decomposition
  | Time :     0.000 s
  Finished transformation to standard eigenproblem
  | Time :     0.000 s
  Finished solving standard eigenproblem
  | Time :     0.000 s
  Finished back-transformation of eigenvectors
  | Time :     0.000 s

  Obtaining occupation numbers and electronic chemical potential using ELSI.
  | Note that, for insulating systems, the printed 'chemical potential' value is not uniquely defined.
  | It can be anywhere in the energy gap, as long as it correctly separates occupied and unoccupied states.
  | In systems with a gap, the physically relevant chemical potential is the VBM or HOMO.

  | Chemical potential (Fermi level):    -7.21307130 eV
  What follows are estimated values for band gap, HOMO, LUMO, etc.
  | They are estimated on a discrete k-point grid and not necessarily exact.
  | For converged numbers, create a DOS and/or band structure plot on a denser k-grid.

  Highest occupied state (VBM) at     -9.71245231 eV (relative to internal zero)
  | Occupation number:      2.00000000
  | K-point:       1 at    0.000000    0.000000    0.000000 (in units of recip. lattice)

  Lowest unoccupied state (CBM) at    -4.71369028 eV (relative to internal zero)
  | Occupation number:      0.00000000
  | K-point:       1 at    0.000000    0.000000    0.000000 (in units of recip. lattice)

  The gap value is above 0.2 eV. Unless you are using a very sparse k-point grid,
  this system is most likely an insulator or a semiconductor.
  ESTIMATED overall HOMO-LUMO gap:      4.99876204 eV between HOMO at k-point 1 and LUMO at k-point 1
  | This appears to be a direct band gap.

  Total energy components:
  | Sum of eigenvalues            :        -151.70935637 Ha       -4128.22162854 eV
  | XC energy correction          :         -25.14843144 Ha        -684.32363750 eV
  | XC potential correction       :          32.41445959 Ha         882.04232325 eV
  | Free-atom electrostatic energy:        -130.85716854 Ha       -3560.80472765 eV
  | Hartree energy correction     :          -0.59232704 Ha         -16.11803882 eV
  | Entropy correction            :          -0.00000000 Ha          -0.00000000 eV
  | ---------------------------
  | Total energy                  :        -275.89282380 Ha       -7507.42570927 eV
  | Total energy, T -> 0          :        -275.89282380 Ha       -7507.42570927 eV  <-- do not rely on this value for anything but (periodic) metals
  | Electronic free energy        :        -275.89282380 Ha       -7507.42570927 eV

  Derived energy quantities:
  | Kinetic energy                :         276.39385312 Ha        7521.05941061 eV
  | Electrostatic energy          :        -527.13824548 Ha      -14344.16148238 eV
  | Energy correction for multipole
  | error in Hartree potential    :           0.00290411 Ha           0.07902476 eV
  | Sum of eigenvalues per atom                           :       -2064.11081427 eV
  | Total energy (T->0) per atom                          :       -3753.71285464 eV  <-- do not rely on this value for anything but (periodic) metals
  | Electronic free energy per atom                       :       -3753.71285464 eV
  Evaluating new KS density using the density matrix
  Evaluating density matrix
  Time summed over all CPUs for getting density from density matrix: real work        0.552 s, elapsed        0.552 s
  Integration grid: deviation in total charge (<rho> - N_e) =  -1.065814E-14

  Self-consistency convergence accuracy:
  | Change of charge density      :  0.8392E-01
  | Change of unmixed KS density  :  0.1708E+00
  | Change of sum of eigenvalues  : -0.2196E+01 eV
  | Change of total energy        :  0.2280E-01 eV


------------------------------------------------------------
  End self-consistency iteration #     3       :  max(cpu_time)    wall_clock(cpu1)
  | Time for this iteration                     :        1.000 s           1.005 s
  | Charge density update                       :        0.549 s           0.554 s
  | Density mixing                              :        0.000 s           0.000 s
  | Hartree multipole update                    :        0.001 s           0.001 s
  | Hartree multipole summation                 :        0.178 s           0.177 s
  | Integration                                 :        0.269 s           0.270 s
  | Solution of K.-S. eqns.                     :        0.003 s           0.003 s
  | Total energy evaluation                     :        0.000 s           0.000 s

  Partial memory accounting:
  | Current value for overall tracked memory usage:
  |   Minimum:        7.295 MB (on task 0)
  |   Maximum:        7.295 MB (on task 0)
  |   Average:        7.295 MB
  | Peak value for overall tracked memory usage:
  |   Minimum:       11.496 MB (on task 0 after allocating gradient_basis_wave)
  |   Maximum:       11.496 MB (on task 0 after allocating gradient_basis_wave)
  |   Average:       11.496 MB
  | Largest tracked array allocation so far:
  |   Minimum:        2.186 MB (previous_rho_gradient_diff on task 0)
  |   Maximum:        2.186 MB (previous_rho_gradient_diff on task 0)
  |   Average:        2.186 MB
  Note:  These values currently only include a subset of arrays which are explicitly tracked.
  The "true" memory usage will be greater.
------------------------------------------------------------

------------------------------------------------------------
          Begin self-consistency iteration #    4

  Date     :  20260327, Time     :  151217.104
------------------------------------------------------------
  Pulay mixing of updated and previous charge densities.
  Renormalizing the density to the exact electron count on the 3D integration grid.
  | Formal number of electrons (from input files) :      20.0000000000
  | Integrated number of electrons on 3D grid     :      20.0000000000
  | Charge integration error                      :       0.0000000000
  | Normalization factor for density and gradient :       1.0000000000

  Evaluating partitioned Hartree potential by multipole expansion.
  | Original multipole sum: apparent total charge =  -0.400550E-12
  | Sum of charges compensated after spline to logarithmic grids =   0.308526E-05
  | Analytical far-field extrapolation by fixed multipoles:
  | Hartree multipole sum: apparent total charge =  -0.400992E-12
  Summing up the Hartree potential.
  Time summed over all CPUs for potential: real work        0.182 s, elapsed        0.182 s
  | RMS charge density error from multipole expansion :   0.129096E-01
  | Average real-space part of the electrostatic potential :      0.69762929 eV

  Integrating Hamiltonian matrix: batch-based integration.
  Time summed over all CPUs for integration: real work        0.282 s, elapsed        0.282 s

  Updating Kohn-Sham eigenvalues and eigenvectors using ELSI and the (modified) LAPACK eigensolver.
  Starting LAPACK eigensolver
  Finished Cholesky decomposition
  | Time :     0.000 s
  Finished transformation to standard eigenproblem
  | Time :     0.000 s
  Finished solving standard eigenproblem
  | Time :     0.000 s
  Finished back-transformation of eigenvectors
  | Time :     0.000 s

  Obtaining occupation numbers and electronic chemical potential using ELSI.
  | Note that, for insulating systems, the printed 'chemical potential' value is not uniquely defined.
  | It can be anywhere in the energy gap, as long as it correctly separates occupied and unoccupied states.
  | In systems with a gap, the physically relevant chemical potential is the VBM or HOMO.

  | Chemical potential (Fermi level):    -6.90534723 eV
  What follows are estimated values for band gap, HOMO, LUMO, etc.
  | They are estimated on a discrete k-point grid and not necessarily exact.
  | For converged numbers, create a DOS and/or band structure plot on a denser k-grid.

  Highest occupied state (VBM) at     -9.32109212 eV (relative to internal zero)
  | Occupation number:      2.00000000
  | K-point:       1 at    0.000000    0.000000    0.000000 (in units of recip. lattice)

  Lowest unoccupied state (CBM) at    -4.48960233 eV (relative to internal zero)
  | Occupation number:      0.00000000
  | K-point:       1 at    0.000000    0.000000    0.000000 (in units of recip. lattice)

  The gap value is above 0.2 eV. Unless you are using a very sparse k-point grid,
  this system is most likely an insulator or a semiconductor.
  ESTIMATED overall HOMO-LUMO gap:      4.83148979 eV between HOMO at k-point 1 and LUMO at k-point 1
  | This appears to be a direct band gap.

  Total energy components:
  | Sum of eigenvalues            :        -151.69760602 Ha       -4127.90188512 eV
  | XC energy correction          :         -25.16603474 Ha        -684.80264777 eV
  | XC potential correction       :          32.43702198 Ha         882.65627707 eV
  | Free-atom electrostatic energy:        -130.85716854 Ha       -3560.80472765 eV
  | Hartree energy correction     :          -0.60775141 Ha         -16.53775730 eV
  | Entropy correction            :          -0.00000000 Ha          -0.00000000 eV
  | ---------------------------
  | Total energy                  :        -275.89153873 Ha       -7507.39074078 eV
  | Total energy, T -> 0          :        -275.89153873 Ha       -7507.39074078 eV  <-- do not rely on this value for anything but (periodic) metals
  | Electronic free energy        :        -275.89153873 Ha       -7507.39074078 eV

  Derived energy quantities:
  | Kinetic energy                :         276.19759525 Ha        7515.71896238 eV
  | Electrostatic energy          :        -526.92309924 Ha      -14338.30705539 eV
  | Energy correction for multipole
  | error in Hartree potential    :           0.00395762 Ha           0.10769224 eV
  | Sum of eigenvalues per atom                           :       -2063.95094256 eV
  | Total energy (T->0) per atom                          :       -3753.69537039 eV  <-- do not rely on this value for anything but (periodic) metals
  | Electronic free energy per atom                       :       -3753.69537039 eV
  Evaluating new KS density using the density matrix
  Evaluating density matrix
  Time summed over all CPUs for getting density from density matrix: real work        0.539 s, elapsed        0.539 s
  Integration grid: deviation in total charge (<rho> - N_e) =   8.526513E-14

  Self-consistency convergence accuracy:
  | Change of charge density      :  0.4766E-01
  | Change of unmixed KS density  :  0.5231E-02
  | Change of sum of eigenvalues  :  0.3197E+00 eV
  | Change of total energy        :  0.3497E-01 eV


------------------------------------------------------------
  End self-consistency iteration #     4       :  max(cpu_time)    wall_clock(cpu1)
  | Time for this iteration                     :        1.009 s           1.010 s
  | Charge density update                       :        0.540 s           0.540 s
  | Density mixing                              :        0.000 s           0.000 s
  | Hartree multipole update                    :        0.001 s           0.001 s
  | Hartree multipole summation                 :        0.183 s           0.183 s
  | Integration                                 :        0.282 s           0.282 s
  | Solution of K.-S. eqns.                     :        0.003 s           0.004 s
  | Total energy evaluation                     :        0.000 s           0.000 s

  Partial memory accounting:
  | Current value for overall tracked memory usage:
  |   Minimum:        7.295 MB (on task 0)
  |   Maximum:        7.295 MB (on task 0)
  |   Average:        7.295 MB
  | Peak value for overall tracked memory usage:
  |   Minimum:       11.497 MB (on task 0 after allocating gradient_basis_wave)
  |   Maximum:       11.497 MB (on task 0 after allocating gradient_basis_wave)
  |   Average:       11.497 MB
  | Largest tracked array allocation so far:
  |   Minimum:        2.186 MB (previous_rho_gradient_diff on task 0)
  |   Maximum:        2.186 MB (previous_rho_gradient_diff on task 0)
  |   Average:        2.186 MB
  Note:  These values currently only include a subset of arrays which are explicitly tracked.
  The "true" memory usage will be greater.
------------------------------------------------------------

------------------------------------------------------------
          Begin self-consistency iteration #    5

  Date     :  20260327, Time     :  151218.114
------------------------------------------------------------
  Pulay mixing of updated and previous charge densities.
  Renormalizing the density to the exact electron count on the 3D integration grid.
  | Formal number of electrons (from input files) :      20.0000000000
  | Integrated number of electrons on 3D grid     :      20.0000000000
  | Charge integration error                      :      -0.0000000000
  | Normalization factor for density and gradient :       1.0000000000

  Evaluating partitioned Hartree potential by multipole expansion.
  | Original multipole sum: apparent total charge =  -0.564567E-12
  | Sum of charges compensated after spline to logarithmic grids =   0.290568E-05
  | Analytical far-field extrapolation by fixed multipoles:
  | Hartree multipole sum: apparent total charge =  -0.564961E-12
  Summing up the Hartree potential.
  Time summed over all CPUs for potential: real work        0.183 s, elapsed        0.183 s
  | RMS charge density error from multipole expansion :   0.122227E-01
  | Average real-space part of the electrostatic potential :      0.64708409 eV

  Integrating Hamiltonian matrix: batch-based integration.
  Time summed over all CPUs for integration: real work        0.278 s, elapsed        0.278 s

  Updating Kohn-Sham eigenvalues and eigenvectors using ELSI and the (modified) LAPACK eigensolver.
  Starting LAPACK eigensolver
  Finished Cholesky decomposition
  | Time :     0.000 s
  Finished transformation to standard eigenproblem
  | Time :     0.000 s
  Finished solving standard eigenproblem
  | Time :     0.000 s
  Finished back-transformation of eigenvectors
  | Time :     0.000 s

  Obtaining occupation numbers and electronic chemical potential using ELSI.
  | Note that, for insulating systems, the printed 'chemical potential' value is not uniquely defined.
  | It can be anywhere in the energy gap, as long as it correctly separates occupied and unoccupied states.
  | In systems with a gap, the physically relevant chemical potential is the VBM or HOMO.

  | Chemical potential (Fermi level):    -7.04666056 eV
  What follows are estimated values for band gap, HOMO, LUMO, etc.
  | They are estimated on a discrete k-point grid and not necessarily exact.
  | For converged numbers, create a DOS and/or band structure plot on a denser k-grid.

  Highest occupied state (VBM) at     -9.51181434 eV (relative to internal zero)
  | Occupation number:      2.00000000
  | K-point:       1 at    0.000000    0.000000    0.000000 (in units of recip. lattice)

  Lowest unoccupied state (CBM) at    -4.58150678 eV (relative to internal zero)
  | Occupation number:      0.00000000
  | K-point:       1 at    0.000000    0.000000    0.000000 (in units of recip. lattice)

  The gap value is above 0.2 eV. Unless you are using a very sparse k-point grid,
  this system is most likely an insulator or a semiconductor.
  ESTIMATED overall HOMO-LUMO gap:      4.93030757 eV between HOMO at k-point 1 and LUMO at k-point 1
  | This appears to be a direct band gap.

  Total energy components:
  | Sum of eigenvalues            :        -151.71232892 Ha       -4128.30251570 eV
  | XC energy correction          :         -25.15616979 Ha        -684.53420878 eV
  | XC potential correction       :          32.42457300 Ha         882.31752303 eV
  | Free-atom electrostatic energy:        -130.85716854 Ha       -3560.80472765 eV
  | Hartree energy correction     :          -0.59085722 Ha         -16.07804303 eV
  | Entropy correction            :          -0.00000000 Ha          -0.00000000 eV
  | ---------------------------
  | Total energy                  :        -275.89195148 Ha       -7507.40197213 eV
  | Total energy, T -> 0          :        -275.89195148 Ha       -7507.40197213 eV  <-- do not rely on this value for anything but (periodic) metals
  | Electronic free energy        :        -275.89195148 Ha       -7507.40197213 eV

  Derived energy quantities:
  | Kinetic energy                :         276.22875712 Ha        7516.56692001 eV
  | Electrostatic energy          :        -526.96453881 Ha      -14339.43468337 eV
  | Energy correction for multipole
  | error in Hartree potential    :           0.00374547 Ha           0.10191945 eV
  | Sum of eigenvalues per atom                           :       -2064.15125785 eV
  | Total energy (T->0) per atom                          :       -3753.70098607 eV  <-- do not rely on this value for anything but (periodic) metals
  | Electronic free energy per atom                       :       -3753.70098607 eV
  Evaluating new KS density using the density matrix
  Evaluating density matrix
  Time summed over all CPUs for getting density from density matrix: real work        0.539 s, elapsed        0.539 s
  Integration grid: deviation in total charge (<rho> - N_e) =  -3.552714E-14

  Self-consistency convergence accuracy:
  | Change of charge density      :  0.1001E-01
  | Change of unmixed KS density  :  0.2007E-01
  | Change of sum of eigenvalues  : -0.4006E+00 eV
  | Change of total energy        : -0.1123E-01 eV


------------------------------------------------------------
  End self-consistency iteration #     5       :  max(cpu_time)    wall_clock(cpu1)
  | Time for this iteration                     :        1.007 s           1.008 s
  | Charge density update                       :        0.540 s           0.541 s
  | Density mixing                              :        0.001 s           0.000 s
  | Hartree multipole update                    :        0.001 s           0.001 s
  | Hartree multipole summation                 :        0.184 s           0.184 s
  | Integration                                 :        0.278 s           0.279 s
  | Solution of K.-S. eqns.                     :        0.004 s           0.003 s
  | Total energy evaluation                     :        0.000 s           0.000 s

  Partial memory accounting:
  | Current value for overall tracked memory usage:
  |   Minimum:        7.296 MB (on task 0)
  |   Maximum:        7.296 MB (on task 0)
  |   Average:        7.296 MB
  | Peak value for overall tracked memory usage:
  |   Minimum:       11.497 MB (on task 0 after allocating gradient_basis_wave)
  |   Maximum:       11.497 MB (on task 0 after allocating gradient_basis_wave)
  |   Average:       11.497 MB
  | Largest tracked array allocation so far:
  |   Minimum:        2.186 MB (previous_rho_gradient_diff on task 0)
  |   Maximum:        2.186 MB (previous_rho_gradient_diff on task 0)
  |   Average:        2.186 MB
  Note:  These values currently only include a subset of arrays which are explicitly tracked.
  The "true" memory usage will be greater.
------------------------------------------------------------

------------------------------------------------------------
          Begin self-consistency iteration #    6

  Date     :  20260327, Time     :  151219.122
------------------------------------------------------------
[...]
 Total ovlp3fn data transfer [GB]   5.5046078778104857E-003
  Average sparsity of tmp1/2 0.50000000
  Average sparsity of fock_matrix_row 0.98474944
  Full exact exchange energy:     666.754249041314 eV.
  Detailed communication and barrier times:
  | Comm    0:        0.000       0.000       0.000       0.000       0.000       0.000       0.000       0.000       0.000       0.000
  | Imbalance    0:        0.000       0.000       0.000       0.000       0.000       0.000       0.000       0.000       0.000       0.000
  Times            DM_x_o3fn   CM_prod_1   CM_prod_2   tmp2_prod        Sync   Imbalance       Other  Total calc
  | Times    0:        0.022       0.066       0.015       0.021       0.000       0.000       0.003       0.127
  | Times  sum:        0.022       0.066       0.015       0.021       0.000       0.000       0.003       0.127

  Decomposition of Other based on code block (only on MPI task 0):
  Times             Block #1    Block #2    Block #3    Block #4    Block #5    Block #6    Block #7    Block #8
  | Times    0:        0.000       0.000       0.000       0.000       0.000       0.000       0.002       0.000

  Times             Block #9   Block #10   Block #11   Block #12   Block #13   Block #14   Block #15   Block #16
  | Times    0:        0.000       0.000       0.000       0.000       0.000       0.000       0.000       0.000

  Times            Block Sum    Expected
  | Times    0:        0.002       0.003

  ------------------------------------------------------------------

  Post-SCF correlation calculation starts ...

 communicator split irkq, row, col:            1           1           1
 reso: n_basbas,n_basis,n_states          85          17          17
 reso: n_basis_soc,n_saved_states_soc           0           0
 reso: n_k_points,n_irk_points,max_n_basbas_sp          27          14          43
 reso: max_n_basis_sp,n_cells,n_full_freq           9         364           6
  Number of angular grids for average inverse dielectric matrix:     5810
  vol_gamma_numeric/vol_gamma:     0.72853069E-01    0.72835171E-01
  Angular quadrature accuracy for volume:         1.00024574 (should be close to 1)

  Start calculating macroscopic dielectric tensor for periodic GW ...
  Wing vector (multiplication of RI coefficients and moment matrix) not requested, skip
  Calculating real-space p_x matrix elements...
  Integrating real-space momentum matrix: batch-based integration.
  Time summed over all CPUs for integration: real work        0.376 s, elapsed        0.376 s

  Calculating real-space p_y matrix elements...
  Integrating real-space momentum matrix: batch-based integration.
  Time summed over all CPUs for integration: real work        0.375 s, elapsed        0.375 s

  Calculating real-space p_z matrix elements...
  Integrating real-space momentum matrix: batch-based integration.
  Time summed over all CPUs for integration: real work        0.372 s, elapsed        0.372 s

  Done preparing real-space moment matrix
  Finished head tensor calculation for periodic GW (without SOC)
  Integrating local/semilocal matrix: batch-based integration.
  Time summed over all CPUs for integration: real work        0.276 s, elapsed        0.276 s

------------------------------------------------------------------------------
  Start to calculate DFT xc contribution for each single-particle level ...
  | Storage requirements for basis-basbas products (processor-local):
  |   Species O: n_prodsfn:    84; storage:        2.62 MiB.
  |   Species Mg: n_prodsfn:   105; storage:        3.28 MiB.


  Finished with initialization of triples (Coulomb norm) ...
  Preparing TB like auxiliary 2-center Coulomb matrix
  SBT integration errors (all should be 'small'):
  large logFT aliasing -> increase N/lnrange
  large SBT aliasing -> decrease lnk0 & increase lnk0+lnrange
  large SBT ringing -> decrease lnr0 & increase lnr0+lnrange
  |            El't  L: logFT-al.   small-k   large-k   small-r   large-r
  | Need to store   792 splines of   148 points taking        936 KiB.
  | Spline reduction from  4096 to   148 points by (cutting and)     1 x coarsening gives error:  0.00E+00

  Finished with initialization of Coulomb interaction matrix ...

  Compute and write real-space triple LVL expansion coefficents in real space for LibRPA ...
  Folding C(R) to BvK to reduce disk space consumption
                     ap_begin       ap_end   cell_begin     cell_end   my_comm_ap size_comm_ap myid_comm_ap
  Task         0            1            4            1          364  -1006632940            1            0
  Distributed                 1456 (atom pair,cell) tasks
Non-zero C of all Cs exported by task     0 :      108 /      108

  Finished with initialization of the periodic LVL triple coefficients ...
  CPU/Clock time:      10.008      10.009

  Atomic logSBT for LVL-triples                :  max(cpu_time)    wall_clock(cpu1)
  | Multiplication with kernel                  :        0.055 s           0.051 s
  | Main matrix multiplication                  :        3.214 s           3.237 s
  | Analytic angular integration                :        0.087 s           0.070 s
  | Kernel construction                         :        0.034 s           0.034 s
  | Overall 2-center overlap time               :        3.632 s           3.627 s
  | 3-center preparation multiplications        :        0.002 s           0.003 s
  | 3-center preparation SBTs                   :        0.068 s           0.066 s
  | 3-center combinations                       :        3.741 s           3.741 s
  | Overal 3-center time                        :        3.811 s           3.811 s
  | LVL initialization                          :        0.004 s           0.004 s
  | Whole LVL-triples                           :        0.004 s           0.004 s

  Atomic logSBT for 2-center Coulomb matrix    :  max(cpu_time)    wall_clock(cpu1)
  | TB initialization                           :        0.090 s           0.091 s
  | TB usage                                    :        0.026 s           0.024 s

  Calculating cut-Coulomb interaction matrix ...
  Preparing TB like auxiliary 2-center cutCoul matrix
  SBT integration errors (all should be 'small'):
  large logFT aliasing -> increase N/lnrange
  large SBT aliasing -> decrease lnk0 & increase lnk0+lnrange
  large SBT ringing -> decrease lnr0 & increase lnr0+lnrange
  |            El't  L: logFT-al.   small-k   large-k   small-r   large-r
  Initializing cut Coulomb operator.
  | Cut [erfc(-/+1)/2] from    4.0923 A to    4.8788 A within   15 sbt_grid points.

  | Need to store   792 splines of   198 points taking       1240 KiB.
  | Spline reduction from  4096 to   198 points by (cutting and)     1 x coarsening gives error:  0.00E+00
  | Maximum value outside interaction range:  7.22E-16
  Calculating the Coulomb matrix in reciprocal space ...
  Atomic logSBT for 2-center cutCoul matrix    :  max(cpu_time)    wall_clock(cpu1)
  | TB initialization                           :        0.125 s           0.126 s
  | TB usage                                    :        0.045 s           0.051 s

  Atomic logSBT for 2-center cutCoul matrix    :  max(cpu_time)    wall_clock(cpu1)
  | TB initialization                           :        0.125 s           0.126 s
  | TB usage                                    :        0.045 s           0.051 s

  Preparing TB like auxiliary 2-center Coulomb matrix
  SBT integration errors (all should be 'small'):
  large logFT aliasing -> increase N/lnrange
  large SBT aliasing -> decrease lnk0 & increase lnk0+lnrange
  large SBT ringing -> decrease lnr0 & increase lnr0+lnrange
  |            El't  L: logFT-al.   small-k   large-k   small-r   large-r
  | Need to store   792 splines of   148 points taking        936 KiB.
  | Spline reduction from  4096 to   148 points by (cutting and)     1 x coarsening gives error:  0.00E+00
  | Gaussian spline reduction from  4096 to   148 points by (cutting and)     1 x coarsening gives error:  0.00E+00
  | Maximum value outside interaction range:  2.75E-09
  Calculating singularity lifting chi
  | Gamma:  1.00E+00; chi:     51.0269927023888457
  | Gamma:  5.00E-01; chi:     51.5269927023888172; extra:     52.0269927023887888
  | Gamma:  2.50E-01; chi:     51.7769927023888741; extra:     52.0269927023889309
  | Using chi:     52.0269927023889309; last diff:  1.42E-13
  Calculating the Coulomb matrix in reciprocal space ...
EXCLUDING GAMMA-POINT IN COULOMB POTENTIAL !!!
NOT EXCLUDING GAMMA-POINT IN COULOMB POTENTIAL !!!
NOT EXCLUDING GAMMA-POINT IN COULOMB POTENTIAL !!!
NOT EXCLUDING GAMMA-POINT IN COULOMB POTENTIAL !!!
NOT EXCLUDING GAMMA-POINT IN COULOMB POTENTIAL !!!
NOT EXCLUDING GAMMA-POINT IN COULOMB POTENTIAL !!!
NOT EXCLUDING GAMMA-POINT IN COULOMB POTENTIAL !!!
NOT EXCLUDING GAMMA-POINT IN COULOMB POTENTIAL !!!
NOT EXCLUDING GAMMA-POINT IN COULOMB POTENTIAL !!!
NOT EXCLUDING GAMMA-POINT IN COULOMB POTENTIAL !!!
NOT EXCLUDING GAMMA-POINT IN COULOMB POTENTIAL !!!
NOT EXCLUDING GAMMA-POINT IN COULOMB POTENTIAL !!!
NOT EXCLUDING GAMMA-POINT IN COULOMB POTENTIAL !!!
NOT EXCLUDING GAMMA-POINT IN COULOMB POTENTIAL !!!
NOT EXCLUDING GAMMA-POINT IN COULOMB POTENTIAL !!!
NOT EXCLUDING GAMMA-POINT IN COULOMB POTENTIAL !!!
NOT EXCLUDING GAMMA-POINT IN COULOMB POTENTIAL !!!
NOT EXCLUDING GAMMA-POINT IN COULOMB POTENTIAL !!!
NOT EXCLUDING GAMMA-POINT IN COULOMB POTENTIAL !!!
NOT EXCLUDING GAMMA-POINT IN COULOMB POTENTIAL !!!
NOT EXCLUDING GAMMA-POINT IN COULOMB POTENTIAL !!!
NOT EXCLUDING GAMMA-POINT IN COULOMB POTENTIAL !!!
NOT EXCLUDING GAMMA-POINT IN COULOMB POTENTIAL !!!
NOT EXCLUDING GAMMA-POINT IN COULOMB POTENTIAL !!!
NOT EXCLUDING GAMMA-POINT IN COULOMB POTENTIAL !!!
NOT EXCLUDING GAMMA-POINT IN COULOMB POTENTIAL !!!
NOT EXCLUDING GAMMA-POINT IN COULOMB POTENTIAL !!!
NOT EXCLUDING GAMMA-POINT IN COULOMB POTENTIAL !!!
NOT EXCLUDING GAMMA-POINT IN COULOMB POTENTIAL !!!
NOT EXCLUDING GAMMA-POINT IN COULOMB POTENTIAL !!!
NOT EXCLUDING GAMMA-POINT IN COULOMB POTENTIAL !!!
NOT EXCLUDING GAMMA-POINT IN COULOMB POTENTIAL !!!
NOT EXCLUDING GAMMA-POINT IN COULOMB POTENTIAL !!!
NOT EXCLUDING GAMMA-POINT IN COULOMB POTENTIAL !!!
NOT EXCLUDING GAMMA-POINT IN COULOMB POTENTIAL !!!
NOT EXCLUDING GAMMA-POINT IN COULOMB POTENTIAL !!!
NOT EXCLUDING GAMMA-POINT IN COULOMB POTENTIAL !!!
NOT EXCLUDING GAMMA-POINT IN COULOMB POTENTIAL !!!
NOT EXCLUDING GAMMA-POINT IN COULOMB POTENTIAL !!!
NOT EXCLUDING GAMMA-POINT IN COULOMB POTENTIAL !!!
NOT EXCLUDING GAMMA-POINT IN COULOMB POTENTIAL !!!
NOT EXCLUDING GAMMA-POINT IN COULOMB POTENTIAL !!!
  Atomic logSBT for 2-center Coulomb matrix    :  max(cpu_time)    wall_clock(cpu1)
  | TB initialization                           :        0.092 s           0.092 s
  | TB usage                                    :        0.014 s           0.014 s


------------------------------------------------------------------------------
  Final output of selected total energy values:

  The following output summarizes some interesting total energy values
  at the end of a run (AFTER all relaxation, molecular dynamics, etc.).

  | Total energy of the DFT / Hartree-Fock s.c.f. calculation      :          -7507.389608042 eV
  | Final zero-broadening corrected energy (caution - metals only) :          -7507.389608042 eV
  | For reference only, the value of 1 Hartree used in FHI-aims is :             27.211384500 eV
  | For reference only, the overall average (free atom contribution
  | + realspace contribution) of the electrostatic potential after
  | s.c.f. convergence is                                          :            -16.788366039 eV

  Before relying on these values, please be sure to understand exactly which
  total energy value is referred to by a given number. Different objects may
  all carry the same name 'total energy'. Definitions:

  Total energy of the DFT / Hartree-Fock s.c.f. calculation:
  | Note that this energy does not include ANY quantities calculated after the
  | s.c.f. cycle, in particular not ANY RPA, MP2, etc. many-body perturbation terms.

  Final zero-broadening corrected energy:
  | For metallic systems only, a broadening of the occupation numbers at the Fermi
  | level can be extrapolated back to zero broadening by an electron-gas inspired
  | formula. For all systems that are not real metals, this value can be
  | meaningless and should be avoided.

------------------------------------------------------------------------------
  Methods described in the following list of references were used in this FHI-aims run.
  If you publish the results, please make sure to cite these reference if they apply.
  FHI-aims is an academic code, and for our developers (often, Ph.D. students
  and postdocs), scientific credit in the community is essential.
  Thank you for helping us!

  For any use of FHI-aims, please cite:

    Volker Blum, Ralf Gehrke, Felix Hanke, Paula Havu, Ville Havu,
    Xinguo Ren, Karsten Reuter, and Matthias Scheffler
    'Ab initio molecular simulations with numeric atom-centered orbitals'
    Computer Physics Communications 180, 2175-2196 (2009)
    http://doi.org/10.1016/j.cpc.2009.06.022


  For Hartree-Fock, hybrid functionals, or many-body perturbation theory used in your run, please cite:

    Xinguo Ren, Patrick Rinke, Volker Blum, Juergen Wieferink, Alex Tkatchenko,
    Andrea Sanfilippo, Karsten Reuter, and Matthias Scheffler,
    'Resolution-of-identity approach to Hartree-Fock, hybrid density functionals,
    RPA, MP2, and GW with numeric atom-centered orbital basis functions'
    New Journal of Physics 14, 053020 (2012).
    http://doi.org/10.1088/1367-2630/14/5/053020


  The provided symmetry information was generated with SPGlib:

    Atsushi Togo, Yusuke Seto, Dimitar Pashov
    SPGlib 1.7.3 obtained from http://spglib.sourceforge.net
    Licence: New BSD license
    Copyright (C) 2008 Atsushi Togo


  For the minimax time/frequency grid (GreenX library), please cite

    M. Azizi, J. Wilhelm, D. Golze, M. Giantomassi, R.L. Panadés-Barrueta
    F.A. Delesma, A. Buccheri, A Gulans, P. Rinke, C. Draxl and X. Gonze
    'Time-frequency component of the GreenX library: minimax grids for
    efficient RPA and GW calculations'
    J. Open Source Softw. 2023, 8, 5570
    https://joss.theoj.org/papers/110.21105/joss.05570


  The ELSI infrastructure was used in your run to solve the Kohn-Sham electronic structure.
  Please check out https://wordpress.elsi-interchange.org to learn more.
  If scalability is important for your project, please acknowledge ELSI by citing:

    V. W-z. Yu, F. Corsetti, A. Garcia, W. P. Huhn, M. Jacquelin, W. Jia,
    B. Lange, L. Lin, J. Lu, W. Mi, A. Seifitokaldani, A. Vazquez-Mayagoitia,
    C. Yang, H. Yang, and V. Blum
    'ELSI: A unified software interface for Kohn-Sham electronic structure solvers'
    Computer Physics Communications 222, 267-285 (2018).
    http://doi.org/10.1016/j.cpc.2017.09.007


  For the real-space grid partitioning and parallelization used in this calculation, please cite:

    Ville Havu, Volker Blum, Paula Havu, and Matthias Scheffler,
    'Efficient O(N) integration for all-electron electronic structure calculation'
    'using numerically tabulated basis functions'
    Journal of Computational Physics 228, 8367-8379 (2009).
    http://doi.org/10.1016/j.jcp.2009.08.008


  The high-level electronic structure method used in your calculation
  employed our efficient localized resolution of identity for the Coulomb operator.
  Some calculations, especially large-scale hybrid density functional theory,
  are only possible thanks to this development. For this feature, please cite:

    Arvid Ihrig, Juergen Wieferink, Igor Ying Zhang, Matti Ropo, Xinguo Ren,
    Patrick Rinke, Matthias Scheffler, and Volker Blum,
    'Accurate localized resolution of identity approach for linear-scaling
    hybrid density functionals and for many-body perturbation theory'
    New Journal of Physics 117, 093020 (2015).
    http://doi.org/10.1088/1367-2630/17/9/093020

  Of course, there are many other important community references, e.g., those cited in the
  above references. Our list is limited to references that describe implementations in the
  FHI-aims code. The reason is purely practical (length of this list) - please credit others as well.
------------------------------------------------------------
Warnings summary:

At least    1 warnings were raised during execution.

------------------------------------------------------------
          Leaving FHI-aims.
          Date     :  20260327, Time     :  151233.933

          Computational steps:
          | Number of self-consistency cycles          :           10
          | Number of SCF (re)initializations          :            1

          Detailed time accounting                     :  max(cpu_time)    wall_clock(cpu1)
          | Total time                                  :       21.388 s          21.400 s
          | Preparation time                            :        0.057 s           0.058 s
          | Boundary condition initalization            :        0.063 s           0.064 s
          | Grid partitioning                           :        0.029 s           0.029 s
          | Preloading free-atom quantities on grid     :        0.414 s           0.414 s
          | Free-atom superposition energy              :        0.049 s           0.049 s
          | Total time for integrations                 :        3.205 s           3.207 s
          | Product basis setup: Total time             :        0.000 s           0.000 s
          | Product basis: | 2-center integrations     :(       0.000 s)  (       0.000 s)
          | Product basis: | LVL 3-center & coefficient:(       0.000 s)  (       0.000 s)
          | Initialization for periodic correlated calc :       10.008 s          10.009 s
          | Transforming LVL triples to recip. space    :        0.000 s           0.000 s
          | Total time for head/wing terms for PBC GW   :        1.129 s           1.129 s
          | The exact-exchange part of GW calc.         :        0.365 s           0.365 s
          | Total time for polarizability calc.         :        0.000 s           0.000 s
          | Total time for polarizability of k space    :        0.000 s           0.000 s
          | Aanalytic contiuation time                  :        0.000 s           0.000 s
          | Total time for solution of K.-S. equations  :        0.038 s           0.040 s
          | Total time for density update               :        5.307 s           5.314 s
          | Total time for mixing                       :        0.006 s           0.005 s
          | Total time for Hartree multipole update     :        0.005 s           0.006 s
          | Total time for Hartree multipole sum        :        1.805 s           1.805 s
          | Total time for total energy evaluation      :        0.001 s           0.000 s
          | Total time for scaled ZORA corrections      :        0.000 s           0.000 s

          Partial memory accounting:
          | Residual value for overall tracked memory usage across tasks:     0.000000 MB (should be 0.000000 MB)
          | Peak values for overall tracked memory usage:
          |   Minimum:       20.841 MB (on task 0 after allocating coeff_3fn_bvk)
          |   Maximum:       20.841 MB (on task 0 after allocating coeff_3fn_bvk)
          |   Average:       20.841 MB
          | Largest tracked array allocation:
          |   Minimum:        9.690 MB (work_ovl_mom on task 0)
          |   Maximum:        9.690 MB (work_ovl_mom on task 0)
          |   Average:        9.690 MB
          Note:  These values currently only include a subset of arrays which are explicitly tracked.
          The "true" memory usage will be greater.

          Have a nice day.
------------------------------------------------------------
