------------------------------------------------------------
          Invoking FHI-aims ...

          When using FHI-aims, please cite the following reference:

            Volker Blum, Ralf Gehrke, Felix Hanke, Paula Havu,
            Ville Havu, Xinguo Ren, Karsten Reuter, and Matthias Scheffler,
            'Ab Initio Molecular Simulations with Numeric Atom-Centered Orbitals',
            Computer Physics Communications 180, 2175-2196 (2009)

          In addition, many other developments in FHI-aims are likely important for
          your particular application. If so, please cite them. A partial list of references
          is written at the end of this file. Thank you for giving credit to the authors
          of these developments.

          For general information about FHI-aims please find us at

            https://fhi-aims.org

          Online tutorials can be found at

            https://fhi-aims-club.gitlab.io/tutorials/tutorials-overview/

          For any questions about FHI-aims, please visit our slack channel at

            https://fhi-aims.slack.com

          and our main development and support site at

            https://aims-git.rz-berlin.mpg.de .

          The latter site, in particular, has a wiki to collect information, as well
          as an issue tracker to log discussions, suggest improvements, and report issues
          or bugs. https://aims-git.rz-berlin.mpg.de is also the main development site
          of the project and all new and updated code versions can be obtained there.
          Please send an email to aims-coordinators@fhi-berlin.mpg.de and we will add
          you to these sites. They are for you and everyone is welcome there.

------------------------------------------------------------



  Date     :  20240923, Time     :  145357.375
  Time zero on CPU 1             :   0.308470000000000E-01  s.
  Internal wall clock time zero  :           496335237.375  s.

  FHI-aims created a unique identifier for this run for later identification
  aims_uuid : B8569670-F8FD-4E19-AD8F-9AB49B411E93

  Build configuration of the current instance of FHI-aims
  -------------------------------------------------------
  FHI-aims version      : 240920
  Commit number         : 9ca74cc57
  CMake host system     : Darwin-23.4.0
  CMake version         : 3.30.3
  Fortran compiler      : /opt/homebrew/bin/mpifort (GNU) version 14.2.0
  Fortran compiler flags: -O3 -fallow-argument-mismatch -ffree-line-length-none -Wl,-ld_classic -Wl,-lstdc++ -O2 -g
  C compiler            : /opt/homebrew/bin/mpicc (GNU) version 14.2.0
  C compiler flags      : -cc=gcc-14 -O3 -Wl,-ld_classic -O2 -g -DNDEBUG
  C++ compiler          : /opt/homebrew/bin/mpicxx (GNU) version 14.2.0
  C++ compiler flags    : -cxx=g++-14 -O3 -Wl,-ld_classic -O2 -g -DNDEBUG
  HIP compiler          :
  HIP compiler flags    :
  HIP GPU arch          :
  Using MPI
  Using ScaLAPACK
  Using LibXC
  Using i-PI
  Using RLSY
  Using GREENX
  Linking against: /opt/packages/scalapack/2.2.0/gcc-14.2.0-mpich-4.2.2-openblas/libscalapack.a
                   /opt/homebrew/Cellar/openblas/0.3.28/lib/libopenblas.dylib

  Using        4 parallel tasks.
  Task        0 on host taiyi reporting.
  Task        1 on host taiyi reporting.
  Task        2 on host taiyi reporting.
  Task        3 on host taiyi reporting.

  Memory overcommitment: We could not find /proc/sys/vm/overcommit_memory on your system.

  Obtaining array dimensions for all initial allocations:
  
  -----------------------------------------------------------------------
  Parsing control.in (first pass over file, find array dimensions only).
  The contents of control.in will be repeated verbatim below
  unless switched off by setting 'verbatim_writeout .false.' .
  in the first line of control.in .
  -----------------------------------------------------------------------
  
  #%FHI-aims
  # General setting
  xc               pbe
  relativistic     atomic_zora scalar
  occupation_type  gaussian 0.0001
  basis_threshold  0.e-5
  qpe_calc         gw_expt
  # freq_grid_type minimax
  freq_grid_type mod-GL
  frequency_points 16
  n_anacon_par 16
  anacon_type pade
  k_grid 1 1 1
  state_upper_limit 100000
  
  # print_input_librpa .true.
  # output librpa binary
  symmetry_reduced_k_grid .false.
  
  output gw_regular_kgrid
  # output self_energy
  
  
  ################################################################################
  #
  #  FHI-aims code project
  #  VB, Fritz-Haber Institut, 2009
  #
  #  Suggested "light" defaults for H atom (to be pasted into control.in file)
  #  Be sure to double-check any results obtained with these settings for post-processing,
  #  e.g., with the "tight" defaults and larger basis sets.
  #
  ################################################################################
    species        H
  #     global species definitions
      nucleus             1
      mass                1.00794
  #
      l_hartree           4
  #
      cut_pot             3.5  1.5  1.0
      basis_dep_cutoff    1e-4
  #
      radial_base         24 5.0
      radial_multiplier   1
      angular_grids       specified
        division   0.2421   50
        division   0.3822  110
        division   0.4799  194
        division   0.5341  302
  #      division   0.5626  434
  #      division   0.5922  590
  #      division   0.6542  770
  #      division   0.6868 1202
  #      outer_grid  770
        outer_grid  302
  ################################################################################
  #
  #  Definition of "minimal" basis
  #
  ################################################################################
  #     valence basis states
      valence      1  s   1.
  #     ion occupancy
      ion_occ      1  s   0.5
  ################################################################################
  #
  #  Suggested additional basis functions. For production calculations,
  #  uncomment them one after another (the most important basis functions are
  #  listed first).
  #
  #  Basis constructed for dimers: 0.5 A, 0.7 A, 1.0 A, 1.5 A, 2.5 A
  #
  ################################################################################
  #  "First tier" - improvements: -1014.90 meV to -62.69 meV
       hydro 2 s 2.1
       hydro 2 p 3.5
  #  "Second tier" - improvements: -12.89 meV to -1.83 meV
      hydro 1 s 0.85
      hydro 2 p 3.7
      hydro 2 s 1.2
      hydro 3 d 7
  #  "Third tier" - improvements: -0.25 meV to -0.12 meV
      hydro 4 f 11.2
      hydro 3 p 4.8
      hydro 4 d 9
      hydro 3 s 3.2
  ################################################################################
  
  -----------------------------------------------------------------------
  Completed first pass over input file control.in .
  -----------------------------------------------------------------------
  
  
  -----------------------------------------------------------------------
  Parsing geometry.in (first pass over file, find array dimensions only).
  The contents of geometry.in will be repeated verbatim below
  unless switched off by setting 'verbatim_writeout .false.' .
  in the first line of geometry.in .
  -----------------------------------------------------------------------
  
  lattice_vector 20.0 0.0 0.0
  lattice_vector  0.0 20.0 0.0
  lattice_vector 0.0 0.0 20.0
  atom	0.0000   0.0000   0.3707 H
  atom	0.0000   0.0000   -0.3707 H
  
  
  
  -----------------------------------------------------------------------
  Completed first pass over input file geometry.in .
  -----------------------------------------------------------------------
  

  Basic array size parameters:
  | Number of species                 :        1
  | Number of atoms                   :        2
  | Number of lattice vectors         :        3
  | Max. basis fn. angular momentum   :        3
  | Max. atomic/ionic basis occupied n:        1
  | Max. number of basis fn. types    :        2
  | Max. radial fns per species/type  :       10
  | Max. logarithmic grid size        :     1131
  | Max. radial integration grid size :       24
  | Max. angular integration grid size:      302
  | Max. angular grid division number :        8
  | Radial grid for Hartree potential :     1131
  | Number of spin channels           :        1

------------------------------------------------------------
          Reading file control.in.
------------------------------------------------------------
  XC: Using PBE gradient-corrected functionals.
  Scalar relativistic treatment of kinetic energy: on-site free-atom approximation to ZORA.
  Occupation type: Gaussian broadening, width =   0.100000E-03 eV.
  Threshold for basis singularities:  0.0000E+00
  Periodic GW calculations will be started if finite k point sampling is also set. Please be warned that periodic GW is only at the experimental stage and is still under testing. Be cautious about your results.
  Using modified Gauss-Legendre frequency grid.
  Number of frequency points used for the self-energy calculation:     16
  Number of fitting parameters for analytical continuation :     16
  Using Pade approximation for analytical continuation.
  Found k-point grid:         1         1         1
  Upper limit of the eigenstates for the self-energy correction : 100000
  Request to not use symmetry reduced k-point grids.
  Calculate the periodic GW self-energy on regular k grid.

  Reading configuration options for species H                   .
  | Found nuclear charge :   1.0000
  | Found atomic mass :    1.0079400000000001      amu
  | Found l_max for Hartree potential  :   4
  | Found cutoff potl. onset [A], width [A], scale factor :    3.50000    1.50000    1.00000
  | Threshold for basis-dependent cutoff potential is   0.100000E-03
  | Found data for basic radial integration grid :    24 points, outermost radius =    5.000 A
  | Found multiplier for basic radial grid :   1
  | Found angular grid specification: user-specified.
  | Specified grid contains     5 separate shells.
  | Check grid settings after all constraints further below.
  | Found free-atom valence shell :  1 s   1.000
  | No ionic wave fns used. Skipping ion_occ.
  | Found hydrogenic basis function :  2 s   2.100
  | Found hydrogenic basis function :  2 p   3.500
  | Found hydrogenic basis function :  1 s   0.850
  | Found hydrogenic basis function :  2 p   3.700
  | Found hydrogenic basis function :  2 s   1.200
  | Found hydrogenic basis function :  3 d   7.000
  | Found hydrogenic basis function :  4 f  11.200
  | Found hydrogenic basis function :  3 p   4.800
  | Found hydrogenic basis function :  4 d   9.000
  | Found hydrogenic basis function :  3 s   3.200
  Species H                   : Missing cutoff potential type.
  Defaulting to exp(1/x)/(1-x)^2 type cutoff potential.
  Species H : No 'logarithmic' tag. Using default grid for free atom:
  | Default logarithmic grid data [bohr] : 0.1000E-03 0.1000E+03 0.1012E+01
  Species H : On-site basis accuracy parameter (for Gram-Schmidt orthonormalisation) not specified.
  Using default value basis_acc =  0.1000000E-03.
  Species H                   : Using default innermost maximum threshold i_radial=  2 for radial functions.
  Species H                   : Default cutoff onset for free atom density etc. : 0.35000000E+01 AA.
  Species H                   : Basic radial grid will be enhanced according to radial_multiplier =   1, to contain    24 grid points.

  Finished reading input file 'control.in'.

------------------------------------------------------------


------------------------------------------------------------
          Reading geometry description geometry.in.
------------------------------------------------------------
  | The smallest distance between any two atoms is         0.74140000 AA.
  | The first atom of this pair is atom number                      1 .
  | The second atom of this pair is atom number                     2 .
  | Wigner-Seitz cell of the first atom image           0     0     0 .
  | (The Wigner-Seitz cell of the second atom is 0 0 0  by definition.)

  Symmetry information by spglib:
  | Precision set to  0.1E-04
  | Number of Operations  : 16
  | Space group           : 123
  | International         : P4/mmm
  | Schoenflies           : D4h^1
  Input structure read successfully.
  The structure contains        2 atoms,  and a total of          2.000 electrons.

  Input geometry:
  | Unit cell:
  |       20.00000000        0.00000000        0.00000000
  |        0.00000000       20.00000000        0.00000000
  |        0.00000000        0.00000000       20.00000000
  | Atomic structure:
  |       Atom                x [A]            y [A]            z [A]
  |    1: Species H             0.00000000        0.00000000        0.37070000
  |    2: Species H             0.00000000        0.00000000       -0.37070000

  Lattice parameters for 3D lattice (in Angstroms) :    20.000000   20.000000   20.000000
  Angle(s) between unit vectors (in degrees)       :    90.000000   90.000000   90.000000


  Quantities derived from the lattice vectors (in Angstrom^-1):
  | Reciprocal lattice vector 1:  0.314159  0.000000  0.000000
  | Reciprocal lattice vector 2:  0.000000  0.314159  0.000000
  | Reciprocal lattice vector 3:  0.000000  0.000000  0.314159
  | Unit cell volume                               :   0.800000E+04  Angstrom^3

  Fractional coordinates:
                         L1                L2                L3
       atom_frac         0.00000000        0.00000000        0.01853500  H
       atom_frac         0.00000000        0.00000000       -0.01853500  H

  Slab Identifier: This is likely something in a big box.

  Finished reading input file 'geometry.in'.



  Consistency checks for stacksize environment parameter are next.

  | Maximum stacksize for task 0: 63 [Mb]
  | Maximum stacksize for task 1: 63 [Mb]
  | Maximum stacksize for task 2: 63 [Mb]
  | Maximum stacksize for task 3: 63 [Mb]
   *** Stacksize is not set to unlimited. This might cause problems...
  | Current stacksize for task 0: 63 [Mb]
  | Current stacksize for task 1: 63 [Mb]
  | Current stacksize for task 2: 63 [Mb]
  | Current stacksize for task 3: 63 [Mb]

  Consistency checks for the contents of control.in are next.

  MPI_IN_PLACE appears to work with this MPI implementation.
  | Keeping use_mpi_in_place .true. (see manual).
  Explicit treatment of the Coulomb operator is needed, but the RI method is not specified.
  Coulomb operator: Defaulting to 'LVL fast' resolution of identity - RI_type = LVL_fast
  Species H: Using default value for prodbas_acc =   1.000000E-04.
  Species H: Using default value max_l_prodbas =    20.
  Target number of points in a grid batch is not set. Defaulting to  100
  Method for grid partitioning is not set. Defaulting to parallel hash+maxmin partitioning.
  Batch size limit is not set. Defaulting to    200
  By default, will store active basis functions for each batch.
  If in need of memory, prune_basis_once .false. can be used to disable this option.
  communication_type for Hartree potential was not specified.
  Defaulting to calc_hartree .
  Defaulting to Pulay charge density mixer.
  Pulay mixer: Number of relevant iterations not set.
  Defaulting to    8 iterations.
  Pulay mixer: Number of initial linear mixing iterations not set.
  Defaulting to    0 iterations.
  Work space size for distributed Hartree potential not set.
  Defaulting to   0.200000E+03 MB.
  Mixing parameter for charge density mixing has not been set.
  Using default: charge_mix_param =     0.0500.
  The mixing parameter will be adjusted in iteration number     2 of each s.c.f. cycle (i.e., each geometry step).
  Algorithm-dependent basis array size parameters:
  | n_max_pulay                         :        8
  Maximum number of self-consistency iterations not provided.
  Presetting  1000 iterations.
  Presetting      1001 iterations before the initial mixing cycle
  is restarted anyway using the sc_init_iter criterion / keyword.
  Presetting a factor      1.000 between actual scf density residual
  and density convergence criterion sc_accuracy_rho below which sc_init_iter
  takes no effect.
 * No s.c.f. convergence criteria (sc_accuracy_*) were provided in control.in.
 * The run will proceed with a reasonable default guess, but please check whether.
 * the s.c.f. cycles seem to take too much or too little time.
  Calculation of forces was not defined in control.in. No forces will be calculated.
  Geometry relaxation not requested: no relaxation will be performed.
 * Notice: The s.c.f. convergence criterion sc_accuracy_rho was not provided.
 * We used to stop in this case, and ask the user to provide reasonable
 * scf convergence criteria. However, this led some users to employ criteria
 * that led to extremely long run times, e.g., for simple relaxation.
 * We now preset a default value for sc_accuracy_rho if it is not set.
 * You may still wish to check if this setting is too tight or too loose for your needs.
 * Based on n_atoms and forces and force-correction status, FHI-aims chose sc_accuracy_rho =  0.100000E-05 .
  No accuracy limit for integral partition fn. given. Defaulting to  0.1000E-14.
  No threshold value for u(r) in integrations given. Defaulting to  0.1000E-05.
  No accuracy for occupation numbers given. Defaulting to  0.1000E-12.
  No threshold value for occupation numbers given. Defaulting to  0.0000E+00.
  No accuracy for fermi level given. Defaulting to  0.1000E-19.
  Maximum # of iterations to find E_F not set. Defaulting to  200.
  Preferred method for the eigenvalue solver ('KS_method') not specified in 'control.in'.
  Calling BLACS routine to test compilation state
  Since ScaLAPACK support is enabled, defaulting to ELPA (via ELSI).
  Will not use alltoall communication since running on < 1024 CPUs.
  partition_type (choice of integration weights) for integrals was not specified.
  | Using a version of the partition function of Stratmann and coworkers ('stratmann_sparse').
  | At each grid point, the set of atoms used to build the partition table is smoothly restricted to
  | only those atoms whose free-atom density would be non-zero at that grid point.
  Partitioning for Hartree potential was not defined. Using partition_type for integrals.
  | Adjusted default value of keyword multip_moments_threshold to:       0.10000000E-11
  | This value may affect high angular momentum components of the Hartree potential in periodic systems.
  Spin handling was not defined in control.in. Defaulting to unpolarized case.
  Threshold for auxiliary basis singularities not set.
  Default threshold for auxiliary basis singularities:  0.1000E-04
  * Periodic GW calculations will start ......
  Eigen-decomposition algorithm is used to invert dielectric matrix in periodic GW.
  No q(lm)/r^(l+1) cutoff set for long-range Hartree potential.
  | Using default value of  0.100000E-09 .
  | Verify using the multipole_threshold keyword.
  Defaulting to new monopole extrapolation.
  Density update method: automatic selection selected.
  Using density matrix based charge density update.
  Using density matrix based charge density update.
  Using packed matrix style: index .
 * WARNING: This is an experimental version of the periodic GW implemenation.
 * We are still actively working on it to improve the efficiency and reliability. 
 * Do not rely on any results you obtained from periodic GW calculation.
  Charge integration errors on the 3D integration grid will be compensated
  by explicit normalization and distribution of residual charges.
  Use the "compensate_multipole_errors" flag to change this behaviour.
  Default to 1D ("use_logsbt") integrations for auxiliary 2-center integrals.
  Default onset of logarithmic r-grid for SBT is -38.000000000000
  Default onset of logarithmic k-grid for SBT is -25.000000000000
  Default range of logarithmic r- and k-grid for SBT is  45.000000000000
  Default number of logarithmic r- and k-grid for SBT is   4096
  Default of use_2d_corr is to use the efficient 2D distribution where possible
  Set 'collect_eigenvectors' to be '.true.' for GW/RPA/MP2, SCREX/COHSEX cluster calculations
  Set 'collect_eigenvectors' to be '.true.' for qpe_calc (quasiparticle energy).
  Found no potential conflicts with setting 'use_local_index' for this calculation.
  Flag 'use_local_index' has not been set.
  Testing whether we classify this calculation as large-scale ...
  The calculation contains less than 100 atoms. This is most likely not a large-scale calculation.
  Not setting 'use_local_index'.

  Consistency checks for the contents of geometry.in are next.


  Range separation radius for Ewald summation (hartree_convergence_parameter):      5.00000000 bohr.
  Number of empty states per atom not set in control.in .
  | Since you are using a method that relies on the unoccupied spectrum
  | (MP2,GW,RPA et al.), will use the full Hamiltonian size (see below)
  | as the max. possible number of states (occupied plus empty).

  Structure-dependent array size parameters: 
  | Maximum number of distinct radial functions  :       11
  | Maximum number of basis functions            :       62
  | Number of Kohn-Sham states (occupied + empty):       62
------------------------------------------------------------
  Setting Coulomb cut-width to  1.091868692359 * rcut.
  Setting Coulomb cutting radius rcut to 10.000000000000 A.

  Checking k-grid inconsistencies now:
  | Checks passed.

  Performing system and environment tests:
  | Environment variable OMP_NUM_THREADS correctly set to 1.
  | Checking for ScaLAPACK...
  | Testing pdtran()...
  | All pdtran() tests passed.

------------------------------------------------------------
          Preparing all fixed parts of the calculation.
------------------------------------------------------------
  Determining machine precision:
     2.2250738585072014E-308
  Setting up grids for atomic and cluster calculations.

  Creating wave function, potential, and density for free atoms.
  Runtime choices for atomic solver:
  | atomic solver xc        : PBE
  | compute density gradient: 1
  | compute kinetic density : F

  Species: H

  List of occupied orbitals and eigenvalues:
    n    l              occ      energy [Ha]    energy [eV]
    1    0           1.0000        -0.237593        -6.4652


  Adding cutoff potential to free-atom effective potential.
  Creating fixed part of basis set: Ionic, confined, hydrogenic.

  H                    hydrogenic:

  List of hydrogenic basis orbitals: 
    n    l      effective z      eigenvalue [eV]  inner max. [A]     outer max. [A]     outer radius [A]   
    2    0         2.100000       -14.9728           0.193243           1.317208           4.583499
    2    1         3.500000       -41.6669           0.602369           0.602369           3.723403
    1    0         0.850000        -9.8241           0.624871           0.624871           4.527807
    2    1         3.700000       -46.5650           0.573622           0.573622           3.589321
    2    0         1.200000        -4.1356           0.334980           2.121851           4.639876
    3    2         7.000000       -74.0751           0.680699           0.680699           3.460068
    4    3        11.200000      -106.6683           0.759869           0.759869           3.335469
    3    1         4.800000       -34.8282           0.330910           1.317208           4.527807
    4    2         9.000000       -68.8784           0.397510           1.254346           4.207581
    3    0         3.200000       -15.1660           0.122931           2.121851           4.639876

  Creating atomic-like basis functions for current effective potential.

  Species H                   :

  List of atomic basis orbitals and eigenvalues:
    n    l      energy [Ha]    energy [eV]    outer radius [A]
    1    0        -0.237593        -6.4652       4.527807

  Assembling full basis from fixed parts.
  | Species H :   atomic orbital   1 s accepted.
  | Species H :    hydro orbital   1 s accepted.
  | Species H :    hydro orbital   2 s accepted.
  | Species H :    hydro orbital   2 s accepted.
  | Species H :    hydro orbital   3 s accepted.
  | Species H :    hydro orbital   2 p accepted.
  | Species H :    hydro orbital   2 p accepted.
  | Species H :    hydro orbital   3 p accepted.
  | Species H :    hydro orbital   3 d accepted.
  | Species H :    hydro orbital   4 d accepted.
  | Species H :    hydro orbital   4 f accepted.

  Basis size parameters after reduction:
  | Total number of radial functions:       11
  | Total number of basis functions :       62

  Per-task memory consumption for arrays in subroutine allocate_ext:
  |           3.186888MB.
  Testing on-site integration grid accuracy.
  |  Species  Function  <phi|h_atom|phi> (log., in eV)  <phi|h_atom|phi> (rad., in eV)
           1        1                 -6.4664147733                 -6.4652229287
           1        2                 19.8775780164                 19.8793732963
           1        3                 29.6929083479                 29.7444366826 ***
           1        4                 44.2650410254                 44.6707435007 ***
           1        5                216.3682247397                216.5557244146 ***
           1        6                 28.8758398053                 28.8757141482
           1        7                 59.6315836590                 59.6694493884 ***
           1        8                 75.1900030347                 74.0976389132 ***
           1        9                 60.2918414773                 60.2917307165
           1       10                 90.2097518282                 90.2101433878
           1       11                 94.8981133588                 94.8981486460
 * Note: Onsite integrals marked "***" above are less accurate than
 * onsite_accuracy_threshold =    0.03000 eV. Usually, this is harmless.
 * When in doubt, tighten the "radial" and/or "radial_multiplier" flags to check.

  Preparing densities etc. for the partition functions (integrals / Hartree potential).

  Preparations completed.
  max(cpu_time)          :      0.024 s.
  Wall clock time (cpu1) :      0.036 s.
------------------------------------------------------------

  Initializing index lists of integration centers etc. from given atomic structure:
  Mapping all atomic coordinates to central unit cell.

  Initializing the k-points
  | Number of k-points                             :         1
  The eigenvectors in the calculations are REAL.
  | Consuming          0 KiB for k_phase_exx.
  | Number of basis functions in the Hamiltonian integrals :        62
  | Number of basis functions in a single unit cell        :        62
  | Number of centers in hartree potential         :         2
  | Number of centers in hartree multipole         :         2
  | Number of centers in electron density summation:         2
  | Number of centers in basis integrals           :         2
  | Number of centers in integrals                 :         2
  | Number of centers in hamiltonian               :         2
  | Consuming          0 KiB for k_phase.
  | Number of super-cells (origin) [n_cells]                     :         125
  | Number of super-cells (after PM_index) [n_cells]             :           2
  | Number of super-cells in hamiltonian [n_cells_in_hamiltonian]:           2
  | Size of matrix packed + index [n_hamiltonian_matrix_size] :        1954

------------------------------------------------------------
          Begin self-consistency loop: Initialization.

          Date     :  20240923, Time     :  145357.451
------------------------------------------------------------
  | Estimated reciprocal-space cutoff momentum G_max:         1.84432723 bohr^-1 .
  | Reciprocal lattice points for long-range Hartree potential:    5742
  Using simple linear distribution as default method for k-point parallelism.
  * Using 4 tasks for Scalapack Eigenvalue solver.
  Detailed listing of tasks and assigned k-points:
   Task     0 k-point     1 on taiyi
   Task     1 k-point     1 on taiyi
   Task     2 k-point     1 on taiyi
   Task     3 k-point     1 on taiyi
  K-point:     1 Tasks:     4 split into      2 X      2 BLACS grid
  Calculating block size based on n_basis =           62  max_nprow =            2  max_npcol =            2
  ScaLAPACK block size set to:           16
  Allocating        0.008 MB for ovlp
  Allocating        0.008 MB for ham
  Allocating        0.008 MB for eigenvec
  Required Scalapack workspace - INTEGER:            1  REAL:             1
  Partitioning the integration grid into batches with parallel hashing+maxmin method.
  | Number of batches:      128
  | Maximal batch size:      82
  | Minimal batch size:      66
  | Average batch size:      74.062
  | Standard deviation of batch sizes:       5.879

  Integration load balanced across     4 MPI tasks.
  Work distribution over tasks is as follows:
  Task     0 has       2334 integration points.
  Task     1 has       2372 integration points.
  Task     2 has       2370 integration points.
  Task     3 has       2404 integration points.
  Initializing partition tables, free-atom densities, potentials, etc. across the integration grid (initialize_grid_storage).
  | initialize_grid_storage: Actual outermost partition radius vs. multipole_radius_free
  | (-- VB: in principle, multipole_radius_free should be larger, hence this output)
  | Species        1: Confinement radius =              4.999999999999999 AA, multipole_radius_free =              5.054417573612229 AA.
  | Species        1: outer_partition_radius set to              5.054417573612229 AA .
  | The sparse table of interatomic distances needs          0.04 kbyte instead of         0.03 kbyte of memory.
  | Using the partition_type stratmann_smoother will reduce your memory usage.
  | Net number of integration points:     9480
  | of which are non-zero points    :     8818
  | Numerical average free-atom electrostatic potential    :     -0.00756748 eV
  Renormalizing the initial density to the exact electron count on the 3D integration grid.
  | Initial density: Formal number of electrons (from input files) :       2.0000000000
  | Integrated number of electrons on 3D grid     :       1.9999681063
  | Charge integration error                      :      -0.0000318937
  | Normalization factor for density and gradient :       1.0000159471
  Renormalizing the free-atom superposition density to the exact electron count on the 3D integration grid.
  | Formal number of electrons (from input files) :       2.0000000000
  | Integrated number of electrons on 3D grid     :       1.9999681063
  | Charge integration error                      :      -0.0000318937
  | Normalization factor for density and gradient :       1.0000159471
  Obtaining max. number of non-zero basis functions in each batch (get_n_compute_maxes).
  | Maximal number of non-zero basis functions:       62 in task     0
  | Maximal number of non-zero basis functions:       62 in task     1
  | Maximal number of non-zero basis functions:       62 in task     2
  | Maximal number of non-zero basis functions:       62 in task     3
  Allocating        0.029 MB for KS_eigenvector
  Integrating Hamiltonian matrix: batch-based integration.
  Time summed over all CPUs for integration: real work        0.020 s, elapsed        0.020 s
  Integrating overlap matrix.
  Time summed over all CPUs for integration: real work        0.006 s, elapsed        0.007 s
  Deallocating overlap matrix.

  Updating Kohn-Sham eigenvalues and eigenvectors using ELSI and the ELPA eigensolver.
  Singularity check in k-point 1 (analysis for other k-points may follow below):
  Overlap matrix is not singular
  | Lowest and highest eigenvalues :  0.3287E-04,  0.2000E+01
  Finished singularity check of overlap matrix
  | Time :     0.002 s
  Starting ELPA eigensolver
  Finished Cholesky decomposition
  | Time :     0.002 s
  Finished transformation to standard eigenproblem
  | Time :     0.001 s
  Finished solving standard eigenproblem
  | Time :     0.001 s
  Finished back-transformation of eigenvectors
  | Time :     0.000 s

  Obtaining occupation numbers and electronic chemical potential using ELSI.
  | Note that, for insulating systems, the printed 'chemical potential' value is not uniquely defined.
  | It can be anywhere in the energy gap, as long as it correctly separates occupied and unoccupied states.
  | In systems with a gap, the physically relevant chemical potential is the VBM or HOMO.

  | Chemical potential (Fermi level):    -7.04036760 eV
  Writing Kohn-Sham eigenvalues.

  State    Occupation    Eigenvalue [Ha]    Eigenvalue [eV]
      1       2.00000          -0.503509          -13.70118
      2       0.00000          -0.013948           -0.37955
      3       0.00000           0.042610            1.15948
      4       0.00000           0.107690            2.93039
      5       0.00000           0.107690            2.93039
      6       0.00000           0.226021            6.15035
      7       0.00000           0.337577            9.18595
      8       0.00000           0.343353            9.34312
      9       0.00000           0.343353            9.34312
     10       0.00000           0.411562           11.19916
     11       0.00000           0.575357           15.65625
     12       0.00000           0.803474           21.86363
     13       0.00000           0.803474           21.86363
     14       0.00000           0.813020           22.12339
     15       0.00000           0.813020           22.12341
     16       0.00000           0.984924           26.80114
     17       0.00000           1.216878           33.11295
     18       0.00000           1.260000           34.28634
     19       0.00000           1.260000           34.28634
     20       0.00000           1.332649           36.26322
     21       0.00000           1.332649           36.26322
     22       0.00000           1.370851           37.30277
     23       0.00000           1.370852           37.30277
     24       0.00000           1.452803           39.53279
     25       0.00000           1.583590           43.09169
     26       0.00000           2.529528           68.83195
     27       0.00000           2.529528           68.83195
     28       0.00000           2.807706           76.40156
     29       0.00000           3.026656           82.35951
     30       0.00000           3.026656           82.35951
     31       0.00000           3.135766           85.32854
     32       0.00000           3.670661           99.88377
     33       0.00000           3.670668           99.88395
     34       0.00000           3.790264          103.13832
     35       0.00000           3.790264          103.13832
     36       0.00000           3.870343          105.31739
     37       0.00000           4.442712          120.89236
     38       0.00000           4.442712          120.89236
     39       0.00000           4.455584          121.24261
     40       0.00000           4.455605          121.24317
     41       0.00000           4.716845          128.35188
     42       0.00000           4.948560          134.65716
     43       0.00000           4.948560          134.65716
     44       0.00000           5.169227          140.66183
     45       0.00000           5.169271          140.66302
     46       0.00000           5.243223          142.67535
     47       0.00000           5.243223          142.67535
     48       0.00000           5.756686          156.64739
     49       0.00000           6.444544          175.36497
     50       0.00000           7.211032          196.22218
     51       0.00000           7.211062          196.22298
     52       0.00000           7.260107          197.55755
     53       0.00000           7.260107          197.55755
     54       0.00000           7.312060          198.97128
     55       0.00000           7.678228          208.93523
     56       0.00000           7.678228          208.93523
     57       0.00000           9.372466          255.03777
     58       0.00000           9.721714          264.54130
     59       0.00000          11.373958          309.50115
     60       0.00000          11.373958          309.50115
     61       0.00000          11.474481          312.23651
     62       0.00000          32.417167          882.11599

  Highest occupied state (VBM) at    -13.70118247 eV (relative to internal zero)
  | Occupation number:      2.00000000
  | K-point:       1 at    0.000000    0.000000    0.000000 (in units of recip. lattice)

  Lowest unoccupied state (CBM) at    -0.37955273 eV (relative to internal zero)
  | Occupation number:      0.00000000
  | K-point:       1 at    0.000000    0.000000    0.000000 (in units of recip. lattice)

  The gap value is above 0.2 eV. Unless you are using a very sparse k-point grid,
  this system is most likely an insulator or a semiconductor.
  ESTIMATED overall HOMO-LUMO gap:     13.32162975 eV between HOMO at k-point 1 and LUMO at k-point 1
  Calculating total energy contributions from superposition of free atom densities.

  Total energy components:
  | Sum of eigenvalues            :          -1.00701840 Ha         -27.40236495 eV
  | XC energy correction          :          -0.56529653 Ha         -15.38250116 eV
  | XC potential correction       :           0.72597392 Ha          19.75475543 eV
  | Free-atom electrostatic energy:          -0.34557670 Ha          -9.40362035 eV
  | Hartree energy correction     :          -0.00000000 Ha          -0.00000000 eV
  | Entropy correction            :          -0.00000000 Ha          -0.00000000 eV
  | ---------------------------
  | Total energy                  :          -1.19191771 Ha         -32.43373103 eV
  | Total energy, T -> 0          :          -1.19191771 Ha         -32.43373103 eV  <-- do not rely on this value for anything but (periodic) metals
  | Electronic free energy        :          -1.19191771 Ha         -32.43373103 eV

  Derived energy quantities:
  | Kinetic energy                :           0.67369272 Ha          18.33211170 eV
  | Electrostatic energy          :          -1.30031390 Ha         -35.38334158 eV
  | Energy correction for multipole
  | error in Hartree potential    :           0.00000000 Ha           0.00000000 eV
  | Sum of eigenvalues per atom                           :         -13.70118247 eV
  | Total energy (T->0) per atom                          :         -16.21686552 eV  <-- do not rely on this value for anything but (periodic) metals
  | Electronic free energy per atom                       :         -16.21686552 eV
  Initialize hartree_potential_storage
  Max. number of atoms included in rho_multipole:            2

  End scf initialization - timings             :  max(cpu_time)    wall_clock(cpu1)
  | Time for scf. initialization                :        0.021 s           0.029 s
  | Boundary condition initialization           :        0.013 s           0.013 s
  | Integration                                 :        0.006 s           0.007 s
  | Solution of K.-S. eqns.                     :        0.006 s           0.008 s
  | Grid partitioning                           :        0.003 s           0.003 s
  | Preloading free-atom quantities on grid     :        0.003 s           0.004 s
  | Free-atom superposition energy              :        0.001 s           0.001 s
  | Total energy evaluation                     :        0.000 s           0.000 s

  Partial memory accounting:
  | Current value for overall tracked memory usage:
  |   Minimum:        0.075 MB (on task 3)
  |   Maximum:        0.077 MB (on task 0)
  |   Average:        0.076 MB
  | Peak value for overall tracked memory usage:
  |   Minimum:        0.237 MB (on task 3 after allocating wave)
  |   Maximum:        0.240 MB (on task 0 after allocating wave)
  |   Average:        0.238 MB
  | Largest tracked array allocation so far:
  |   Minimum:        0.050 MB (all_coords on task 1)
  |   Maximum:        0.058 MB (all_coords on task 0)
  |   Average:        0.054 MB
  Note:  These values currently only include a subset of arrays which are explicitly tracked.
  The "true" memory usage will be greater.
------------------------------------------------------------
  Evaluating new KS density using the density matrix
  Evaluating density matrix
  Finished density matrix calculation
  | Time :     0.001 s
  Time summed over all CPUs for getting density from density matrix: real work        0.017 s, elapsed        0.018 s
  Integration grid: deviation in total charge (<rho> - N_e) =  -4.440892E-16

  Time for density update prior                :  max(cpu_time)    wall_clock(cpu1)
  | self-consistency iterative process          :        0.005 s           0.006 s

------------------------------------------------------------
          Begin self-consistency iteration #    1

  Date     :  20240923, Time     :  145357.487
------------------------------------------------------------
  Pulay mixing of updated and previous charge densities.
  Renormalizing the density to the exact electron count on the 3D integration grid.
  | Formal number of electrons (from input files) :       2.0000000000
  | Integrated number of electrons on 3D grid     :       2.0000000000
  | Charge integration error                      :       0.0000000000
  | Normalization factor for density and gradient :       1.0000000000

  Evaluating partitioned Hartree potential by multipole expansion.
  | Original multipole sum: apparent total charge =   0.323423E-14
  | Sum of charges compensated after spline to logarithmic grids =   0.116163E-04
  | Analytical far-field extrapolation by fixed multipoles:
  | Hartree multipole sum: apparent total charge =  -0.000000E+00
  Summing up the Hartree potential.
  Time summed over all CPUs for potential: real work        0.007 s, elapsed        0.007 s
  | RMS charge density error from multipole expansion :   0.252809E-03
  | Average real-space part of the electrostatic potential :      0.00016442 eV

  Integrating Hamiltonian matrix: batch-based integration.
  Time summed over all CPUs for integration: real work        0.015 s, elapsed        0.016 s

  Updating Kohn-Sham eigenvalues and eigenvectors using ELSI and the ELPA eigensolver.
  Starting ELPA eigensolver
  Finished transformation to standard eigenproblem
  | Time :     0.000 s
  Finished solving standard eigenproblem
  | Time :     0.001 s
  Finished back-transformation of eigenvectors
  | Time :     0.000 s

  Obtaining occupation numbers and electronic chemical potential using ELSI.
  | Note that, for insulating systems, the printed 'chemical potential' value is not uniquely defined.
  | It can be anywhere in the energy gap, as long as it correctly separates occupied and unoccupied states.
  | In systems with a gap, the physically relevant chemical potential is the VBM or HOMO.

  | Chemical potential (Fermi level):    -6.89442022 eV
  Writing Kohn-Sham eigenvalues.

  State    Occupation    Eigenvalue [Ha]    Eigenvalue [eV]
      1       2.00000          -0.495920          -13.49468
      2       0.00000          -0.010810           -0.29416
      3       0.00000           0.044076            1.19937
      4       0.00000           0.110548            3.00817
      5       0.00000           0.110548            3.00817
      6       0.00000           0.228483            6.21735
      7       0.00000           0.339435            9.23649
      8       0.00000           0.345204            9.39348
      9       0.00000           0.345204            9.39348
     10       0.00000           0.414160           11.26986
     11       0.00000           0.577349           15.71046
     12       0.00000           0.808395           21.99754
     13       0.00000           0.808395           21.99754
     14       0.00000           0.816860           22.22788
     15       0.00000           0.816860           22.22790
     16       0.00000           0.988156           26.88910
     17       0.00000           1.221037           33.22610
     18       0.00000           1.263969           34.39435
     19       0.00000           1.263969           34.39435
     20       0.00000           1.336149           36.35848
     21       0.00000           1.336149           36.35848
     22       0.00000           1.374336           37.39758
     23       0.00000           1.374336           37.39759
     24       0.00000           1.457745           39.66726
     25       0.00000           1.587406           43.19550
     26       0.00000           2.534359           68.96342
     27       0.00000           2.534359           68.96342
     28       0.00000           2.813743           76.56585
     29       0.00000           3.032294           82.51292
     30       0.00000           3.032294           82.51292
     31       0.00000           3.141698           85.48996
     32       0.00000           3.677642          100.07374
     33       0.00000           3.677649          100.07391
     34       0.00000           3.798228          103.35506
     35       0.00000           3.798228          103.35506
     36       0.00000           3.874659          105.43483
     37       0.00000           4.448304          121.04450
     38       0.00000           4.448304          121.04450
     39       0.00000           4.461242          121.39658
     40       0.00000           4.461263          121.39715
     41       0.00000           4.724278          128.55413
     42       0.00000           4.954590          134.82124
     43       0.00000           4.954590          134.82124
     44       0.00000           5.175135          140.82260
     45       0.00000           5.175179          140.82378
     46       0.00000           5.249426          142.84414
     47       0.00000           5.249426          142.84414
     48       0.00000           5.763394          156.82994
     49       0.00000           6.450262          175.52057
     50       0.00000           7.218035          196.41272
     51       0.00000           7.218064          196.41353
     52       0.00000           7.267133          197.74876
     53       0.00000           7.267133          197.74876
     54       0.00000           7.319615          199.17685
     55       0.00000           7.685279          209.12709
     56       0.00000           7.685279          209.12709
     57       0.00000           9.381793          255.29158
     58       0.00000           9.727109          264.68811
     59       0.00000          11.381856          309.71607
     60       0.00000          11.381856          309.71607
     61       0.00000          11.483605          312.48479
     62       0.00000          32.426657          882.37424

  Highest occupied state (VBM) at    -13.49468316 eV (relative to internal zero)
  | Occupation number:      2.00000000
  | K-point:       1 at    0.000000    0.000000    0.000000 (in units of recip. lattice)

  Lowest unoccupied state (CBM) at    -0.29415727 eV (relative to internal zero)
  | Occupation number:      0.00000000
  | K-point:       1 at    0.000000    0.000000    0.000000 (in units of recip. lattice)

  The gap value is above 0.2 eV. Unless you are using a very sparse k-point grid,
  this system is most likely an insulator or a semiconductor.
  ESTIMATED overall HOMO-LUMO gap:     13.20052589 eV between HOMO at k-point 1 and LUMO at k-point 1

  Total energy components:
  | Sum of eigenvalues            :          -0.99184098 Ha         -26.98936632 eV
  | XC energy correction          :          -0.57250572 Ha         -15.57867338 eV
  | XC potential correction       :           0.73515831 Ha          20.00467537 eV
  | Free-atom electrostatic energy:          -0.34557670 Ha          -9.40362035 eV
  | Hartree energy correction     :          -0.01427348 Ha          -0.38840102 eV
  | Entropy correction            :          -0.00000000 Ha          -0.00000000 eV
  | ---------------------------
  | Total energy                  :          -1.18903857 Ha         -32.35538572 eV
  | Total energy, T -> 0          :          -1.18903857 Ha         -32.35538572 eV  <-- do not rely on this value for anything but (periodic) metals
  | Electronic free energy        :          -1.18903857 Ha         -32.35538572 eV

  Derived energy quantities:
  | Kinetic energy                :           0.70686959 Ha          19.23490007 eV
  | Electrostatic energy          :          -1.32340243 Ha         -36.01161241 eV
  | Energy correction for multipole
  | error in Hartree potential    :          -0.00006444 Ha          -0.00175362 eV
  | Sum of eigenvalues per atom                           :         -13.49468316 eV
  | Total energy (T->0) per atom                          :         -16.17769286 eV  <-- do not rely on this value for anything but (periodic) metals
  | Electronic free energy per atom                       :         -16.17769286 eV
  Evaluating new KS density using the density matrix
  Evaluating density matrix
  Finished density matrix calculation
  | Time :     0.000 s
  Time summed over all CPUs for getting density from density matrix: real work        0.017 s, elapsed        0.018 s
  Integration grid: deviation in total charge (<rho> - N_e) =   3.552714E-15

  Self-consistency convergence accuracy:
  | Change of charge density      :  0.1740E+00
  | Change of unmixed KS density  :  0.4543E+00
  | Change of sum of eigenvalues  :  0.4130E+00 eV
  | Change of total energy        :  0.7835E-01 eV


------------------------------------------------------------
  End self-consistency iteration #     1       :  max(cpu_time)    wall_clock(cpu1)
  | Time for this iteration                     :        0.019 s           0.020 s
  | Charge density update                       :        0.004 s           0.005 s
  | Density mixing                              :        0.000 s           0.000 s
  | Hartree multipole update                    :        0.001 s           0.000 s
  | Hartree multipole summation                 :        0.009 s           0.010 s
  | Integration                                 :        0.004 s           0.004 s
  | Solution of K.-S. eqns.                     :        0.001 s           0.001 s
  | Total energy evaluation                     :        0.000 s           0.000 s

  Partial memory accounting:
  | Current value for overall tracked memory usage:
  |   Minimum:        1.377 MB (on task 0)
  |   Maximum:        1.414 MB (on task 3)
  |   Average:        1.396 MB
  | Peak value for overall tracked memory usage:
  |   Minimum:        1.639 MB (on task 0 after allocating gradient_basis_wave)
  |   Maximum:        1.676 MB (on task 3 after allocating gradient_basis_wave)
  |   Average:        1.658 MB
  | Largest tracked array allocation so far:
  |   Minimum:        0.427 MB (previous_rho_gradient_diff on task 0)
  |   Maximum:        0.440 MB (previous_rho_gradient_diff on task 3)
  |   Average:        0.434 MB
  Note:  These values currently only include a subset of arrays which are explicitly tracked.
  The "true" memory usage will be greater.
------------------------------------------------------------

------------------------------------------------------------
          Begin self-consistency iteration #    2

  Date     :  20240923, Time     :  145357.507
------------------------------------------------------------
  Pulay mixing of updated and previous charge densities.
  Renormalizing the density to the exact electron count on the 3D integration grid.
  | Formal number of electrons (from input files) :       2.0000000000
  | Integrated number of electrons on 3D grid     :       2.0000000000
  | Charge integration error                      :       0.0000000000
  | Normalization factor for density and gradient :       1.0000000000

  Evaluating partitioned Hartree potential by multipole expansion.
  | Original multipole sum: apparent total charge =   0.316999E-14
  | Sum of charges compensated after spline to logarithmic grids =   0.187795E-03
  | Analytical far-field extrapolation by fixed multipoles:
  | Hartree multipole sum: apparent total charge =  -0.000000E+00
  Summing up the Hartree potential.
  Time summed over all CPUs for potential: real work        0.006 s, elapsed        0.007 s
  | RMS charge density error from multipole expansion :   0.405396E-02
  | Average real-space part of the electrostatic potential :      0.00263705 eV

  Integrating Hamiltonian matrix: batch-based integration.
  Time summed over all CPUs for integration: real work        0.015 s, elapsed        0.016 s

  Updating Kohn-Sham eigenvalues and eigenvectors using ELSI and the ELPA eigensolver.
  Starting ELPA eigensolver
  Finished transformation to standard eigenproblem
  | Time :     0.000 s
  Finished solving standard eigenproblem
  | Time :     0.000 s
  Finished back-transformation of eigenvectors
  | Time :     0.000 s

  Obtaining occupation numbers and electronic chemical potential using ELSI.
  | Note that, for insulating systems, the printed 'chemical potential' value is not uniquely defined.
  | It can be anywhere in the energy gap, as long as it correctly separates occupied and unoccupied states.
  | In systems with a gap, the physically relevant chemical potential is the VBM or HOMO.

  | Chemical potential (Fermi level):    -4.66445407 eV
  Highest occupied state (VBM) at    -10.26849893 eV (relative to internal zero)
  | Occupation number:      2.00000000
  | K-point:       1 at    0.000000    0.000000    0.000000 (in units of recip. lattice)

  Lowest unoccupied state (CBM) at     0.93959078 eV (relative to internal zero)
  | Occupation number:      0.00000000
  | K-point:       1 at    0.000000    0.000000    0.000000 (in units of recip. lattice)

  The gap value is above 0.2 eV. Unless you are using a very sparse k-point grid,
  this system is most likely an insulator or a semiconductor.
  ESTIMATED overall HOMO-LUMO gap:     11.20808971 eV between HOMO at k-point 1 and LUMO at k-point 1

  Checking to see if s.c.f. parameters should be adjusted.
  The system likely has a gap. Increased the default Pulay mixing parameter (charge_mix_param). Value:   0.200000 .

  Total energy components:
  | Sum of eigenvalues            :          -0.75472080 Ha         -20.53699785 eV
  | XC energy correction          :          -0.69650677 Ha         -18.95291343 eV
  | XC potential correction       :           0.89400800 Ha          24.32719552 eV
  | Free-atom electrostatic energy:          -0.34557670 Ha          -9.40362035 eV
  | Hartree energy correction     :          -0.26391731 Ha          -7.18155551 eV
  | Entropy correction            :          -0.00000000 Ha          -0.00000000 eV
  | ---------------------------
  | Total energy                  :          -1.16671357 Ha         -31.74789163 eV
  | Total energy, T -> 0          :          -1.16671357 Ha         -31.74789163 eV  <-- do not rely on this value for anything but (periodic) metals
  | Electronic free energy        :          -1.16671357 Ha         -31.74789163 eV

  Derived energy quantities:
  | Kinetic energy                :           1.16440234 Ha          31.68499976 eV
  | Electrostatic energy          :          -1.63460915 Ha         -44.47997796 eV
  | Energy correction for multipole
  | error in Hartree potential    :          -0.00103128 Ha          -0.02806261 eV
  | Sum of eigenvalues per atom                           :         -10.26849893 eV
  | Total energy (T->0) per atom                          :         -15.87394581 eV  <-- do not rely on this value for anything but (periodic) metals
  | Electronic free energy per atom                       :         -15.87394581 eV
  Evaluating new KS density using the density matrix
  Evaluating density matrix
  Finished density matrix calculation
  | Time :     0.000 s
  Time summed over all CPUs for getting density from density matrix: real work        0.017 s, elapsed        0.018 s
  Integration grid: deviation in total charge (<rho> - N_e) =   1.776357E-15

  Self-consistency convergence accuracy:
  | Change of charge density      :  0.1631E+00
  | Change of unmixed KS density  :  0.2177E-02
  | Change of sum of eigenvalues  :  0.6452E+01 eV
  | Change of total energy        :  0.6075E+00 eV


------------------------------------------------------------
  End self-consistency iteration #     2       :  max(cpu_time)    wall_clock(cpu1)
  | Time for this iteration                     :        0.018 s           0.018 s
  | Charge density update                       :        0.005 s           0.004 s
  | Density mixing                              :        0.000 s           0.000 s
  | Hartree multipole update                    :        0.000 s           0.000 s
  | Hartree multipole summation                 :        0.008 s           0.009 s
  | Integration                                 :        0.004 s           0.004 s
  | Solution of K.-S. eqns.                     :        0.001 s           0.000 s
  | Total energy evaluation                     :        0.000 s           0.001 s

  Partial memory accounting:
  | Current value for overall tracked memory usage:
  |   Minimum:        1.378 MB (on task 0)
  |   Maximum:        1.415 MB (on task 3)
  |   Average:        1.397 MB
  | Peak value for overall tracked memory usage:
  |   Minimum:        1.641 MB (on task 0 after allocating gradient_basis_wave)
  |   Maximum:        1.677 MB (on task 3 after allocating gradient_basis_wave)
  |   Average:        1.659 MB
  | Largest tracked array allocation so far:
  |   Minimum:        0.427 MB (previous_rho_gradient_diff on task 0)
  |   Maximum:        0.440 MB (previous_rho_gradient_diff on task 3)
  |   Average:        0.434 MB
  Note:  These values currently only include a subset of arrays which are explicitly tracked.
  The "true" memory usage will be greater.
------------------------------------------------------------

------------------------------------------------------------
          Begin self-consistency iteration #    3

  Date     :  20240923, Time     :  145357.525
------------------------------------------------------------
  Pulay mixing of updated and previous charge densities.
  Renormalizing the density to the exact electron count on the 3D integration grid.
  | Formal number of electrons (from input files) :       2.0000000000
  | Integrated number of electrons on 3D grid     :       2.0000000000
  | Charge integration error                      :       0.0000000000
  | Normalization factor for density and gradient :       1.0000000000

  Evaluating partitioned Hartree potential by multipole expansion.
  | Original multipole sum: apparent total charge =   0.129559E-14
  | Sum of charges compensated after spline to logarithmic grids =   0.192740E-03
  | Analytical far-field extrapolation by fixed multipoles:
  | Hartree multipole sum: apparent total charge =  -0.000000E+00
  Summing up the Hartree potential.
  Time summed over all CPUs for potential: real work        0.006 s, elapsed        0.007 s
  | RMS charge density error from multipole expansion :   0.406158E-02
  | Average real-space part of the electrostatic potential :      0.00264278 eV

  Integrating Hamiltonian matrix: batch-based integration.
  Time summed over all CPUs for integration: real work        0.015 s, elapsed        0.015 s

  Updating Kohn-Sham eigenvalues and eigenvectors using ELSI and the ELPA eigensolver.
  Starting ELPA eigensolver
  Finished transformation to standard eigenproblem
  | Time :     0.000 s
  Finished solving standard eigenproblem
  | Time :     0.001 s
  Finished back-transformation of eigenvectors
  | Time :     0.000 s

  Obtaining occupation numbers and electronic chemical potential using ELSI.
  | Note that, for insulating systems, the printed 'chemical potential' value is not uniquely defined.
  | It can be anywhere in the energy gap, as long as it correctly separates occupied and unoccupied states.
  | In systems with a gap, the physically relevant chemical potential is the VBM or HOMO.

  | Chemical potential (Fermi level):    -4.66279745 eV
  Highest occupied state (VBM) at    -10.27001579 eV (relative to internal zero)
  | Occupation number:      2.00000000
  | K-point:       1 at    0.000000    0.000000    0.000000 (in units of recip. lattice)

  Lowest unoccupied state (CBM) at     0.94442088 eV (relative to internal zero)
  | Occupation number:      0.00000000
  | K-point:       1 at    0.000000    0.000000    0.000000 (in units of recip. lattice)

  The gap value is above 0.2 eV. Unless you are using a very sparse k-point grid,
  this system is most likely an insulator or a semiconductor.
  ESTIMATED overall HOMO-LUMO gap:     11.21443667 eV between HOMO at k-point 1 and LUMO at k-point 1

  Total energy components:
  | Sum of eigenvalues            :          -0.75483229 Ha         -20.54003157 eV
  | XC energy correction          :          -0.69628654 Ha         -18.94692083 eV
  | XC potential correction       :           0.89375051 Ha          24.32018875 eV
  | Free-atom electrostatic energy:          -0.34557670 Ha          -9.40362035 eV
  | Hartree energy correction     :          -0.26376863 Ha          -7.17750965 eV
  | Entropy correction            :          -0.00000000 Ha          -0.00000000 eV
  | ---------------------------
  | Total energy                  :          -1.16671365 Ha         -31.74789365 eV
  | Total energy, T -> 0          :          -1.16671365 Ha         -31.74789365 eV  <-- do not rely on this value for anything but (periodic) metals
  | Electronic free energy        :          -1.16671365 Ha         -31.74789365 eV

  Derived energy quantities:
  | Kinetic energy                :           1.16262041 Ha          31.63651114 eV
  | Electrostatic energy          :          -1.63304752 Ha         -44.43748396 eV
  | Energy correction for multipole
  | error in Hartree potential    :          -0.00104343 Ha          -0.02839328 eV
  | Sum of eigenvalues per atom                           :         -10.27001579 eV
  | Total energy (T->0) per atom                          :         -15.87394682 eV  <-- do not rely on this value for anything but (periodic) metals
  | Electronic free energy per atom                       :         -15.87394682 eV
  Evaluating new KS density using the density matrix
  Evaluating density matrix
  Finished density matrix calculation
  | Time :     0.000 s
  Time summed over all CPUs for getting density from density matrix: real work        0.016 s, elapsed        0.017 s
  Integration grid: deviation in total charge (<rho> - N_e) =   8.881784E-16

  Self-consistency convergence accuracy:
  | Change of charge density      :  0.9150E-02
  | Change of unmixed KS density  :  0.4106E-01
  | Change of sum of eigenvalues  : -0.3034E-02 eV
  | Change of total energy        : -0.2022E-05 eV


------------------------------------------------------------
  End self-consistency iteration #     3       :  max(cpu_time)    wall_clock(cpu1)
  | Time for this iteration                     :        0.018 s           0.018 s
  | Charge density update                       :        0.004 s           0.004 s
  | Density mixing                              :        0.000 s           0.001 s
  | Hartree multipole update                    :        0.000 s           0.000 s
  | Hartree multipole summation                 :        0.008 s           0.008 s
  | Integration                                 :        0.004 s           0.004 s
  | Solution of K.-S. eqns.                     :        0.001 s           0.001 s
  | Total energy evaluation                     :        0.000 s           0.000 s

  Partial memory accounting:
  | Current value for overall tracked memory usage:
  |   Minimum:        1.379 MB (on task 0)
  |   Maximum:        1.415 MB (on task 3)
  |   Average:        1.397 MB
  | Peak value for overall tracked memory usage:
  |   Minimum:        1.641 MB (on task 0 after allocating gradient_basis_wave)
  |   Maximum:        1.677 MB (on task 3 after allocating gradient_basis_wave)
  |   Average:        1.659 MB
  | Largest tracked array allocation so far:
  |   Minimum:        0.427 MB (previous_rho_gradient_diff on task 0)
  |   Maximum:        0.440 MB (previous_rho_gradient_diff on task 3)
  |   Average:        0.434 MB
  Note:  These values currently only include a subset of arrays which are explicitly tracked.
  The "true" memory usage will be greater.
------------------------------------------------------------

------------------------------------------------------------
          Begin self-consistency iteration #    4

  Date     :  20240923, Time     :  145357.543
------------------------------------------------------------
  Pulay mixing of updated and previous charge densities.
  Renormalizing the density to the exact electron count on the 3D integration grid.
  | Formal number of electrons (from input files) :       2.0000000000
  | Integrated number of electrons on 3D grid     :       2.0000000000
  | Charge integration error                      :       0.0000000000
  | Normalization factor for density and gradient :       1.0000000000

  Evaluating partitioned Hartree potential by multipole expansion.
  | Original multipole sum: apparent total charge =   0.415636E-14
  | Sum of charges compensated after spline to logarithmic grids =   0.222454E-03
  | Analytical far-field extrapolation by fixed multipoles:
  | Hartree multipole sum: apparent total charge =  -0.000000E+00
  Summing up the Hartree potential.
  Time summed over all CPUs for potential: real work        0.007 s, elapsed        0.007 s
  | RMS charge density error from multipole expansion :   0.416962E-02
  | Average real-space part of the electrostatic potential :      0.00271229 eV

  Integrating Hamiltonian matrix: batch-based integration.
  Time summed over all CPUs for integration: real work        0.016 s, elapsed        0.017 s

  Updating Kohn-Sham eigenvalues and eigenvectors using ELSI and the ELPA eigensolver.
  Starting ELPA eigensolver
  Finished transformation to standard eigenproblem
  | Time :     0.000 s
  Finished solving standard eigenproblem
  | Time :     0.000 s
  Finished back-transformation of eigenvectors
  | Time :     0.000 s

  Obtaining occupation numbers and electronic chemical potential using ELSI.
  | Note that, for insulating systems, the printed 'chemical potential' value is not uniquely defined.
  | It can be anywhere in the energy gap, as long as it correctly separates occupied and unoccupied states.
  | In systems with a gap, the physically relevant chemical potential is the VBM or HOMO.

  | Chemical potential (Fermi level):    -4.61560493 eV
  Highest occupied state (VBM) at    -10.22711657 eV (relative to internal zero)
  | Occupation number:      2.00000000
  | K-point:       1 at    0.000000    0.000000    0.000000 (in units of recip. lattice)

  Lowest unoccupied state (CBM) at     0.99590671 eV (relative to internal zero)
  | Occupation number:      0.00000000
  | K-point:       1 at    0.000000    0.000000    0.000000 (in units of recip. lattice)

  The gap value is above 0.2 eV. Unless you are using a very sparse k-point grid,
  this system is most likely an insulator or a semiconductor.
  ESTIMATED overall HOMO-LUMO gap:     11.22302328 eV between HOMO at k-point 1 and LUMO at k-point 1

  Total energy components:
  | Sum of eigenvalues            :          -0.75167925 Ha         -20.45423313 eV
  | XC energy correction          :          -0.69724870 Ha         -18.97310234 eV
  | XC potential correction       :           0.89513193 Ha          24.35777916 eV
  | Free-atom electrostatic energy:          -0.34557670 Ha          -9.40362035 eV
  | Hartree energy correction     :          -0.26736626 Ha          -7.27540599 eV
  | Entropy correction            :          -0.00000000 Ha          -0.00000000 eV
  | ---------------------------
  | Total energy                  :          -1.16673897 Ha         -31.74858266 eV
  | Total energy, T -> 0          :          -1.16673897 Ha         -31.74858266 eV  <-- do not rely on this value for anything but (periodic) metals
  | Electronic free energy        :          -1.16673897 Ha         -31.74858266 eV

  Derived energy quantities:
  | Kinetic energy                :           1.15935119 Ha          31.54755109 eV
  | Electrostatic energy          :          -1.62884147 Ha         -44.32303142 eV
  | Energy correction for multipole
  | error in Hartree potential    :          -0.00112494 Ha          -0.03061111 eV
  | Sum of eigenvalues per atom                           :         -10.22711657 eV
  | Total energy (T->0) per atom                          :         -15.87429133 eV  <-- do not rely on this value for anything but (periodic) metals
  | Electronic free energy per atom                       :         -15.87429133 eV
  Evaluating new KS density using the density matrix
  Evaluating density matrix
  Finished density matrix calculation
  | Time :     0.001 s
  Time summed over all CPUs for getting density from density matrix: real work        0.017 s, elapsed        0.017 s
  Integration grid: deviation in total charge (<rho> - N_e) =   3.552714E-15

  Self-consistency convergence accuracy:
  | Change of charge density      :  0.8457E-02
  | Change of unmixed KS density  :  0.5200E-04
  | Change of sum of eigenvalues  :  0.8580E-01 eV
  | Change of total energy        : -0.6890E-03 eV


------------------------------------------------------------
  End self-consistency iteration #     4       :  max(cpu_time)    wall_clock(cpu1)
  | Time for this iteration                     :        0.020 s           0.020 s
  | Charge density update                       :        0.005 s           0.005 s
  | Density mixing                              :        0.000 s           0.001 s
  | Hartree multipole update                    :        0.000 s           0.000 s
  | Hartree multipole summation                 :        0.008 s           0.008 s
  | Integration                                 :        0.004 s           0.005 s
  | Solution of K.-S. eqns.                     :        0.001 s           0.001 s
  | Total energy evaluation                     :        0.000 s           0.000 s

  Partial memory accounting:
  | Current value for overall tracked memory usage:
  |   Minimum:        1.379 MB (on task 0)
  |   Maximum:        1.415 MB (on task 3)
  |   Average:        1.398 MB
  | Peak value for overall tracked memory usage:
  |   Minimum:        1.641 MB (on task 0 after allocating gradient_basis_wave)
  |   Maximum:        1.677 MB (on task 3 after allocating gradient_basis_wave)
  |   Average:        1.660 MB
  | Largest tracked array allocation so far:
  |   Minimum:        0.427 MB (previous_rho_gradient_diff on task 0)
  |   Maximum:        0.440 MB (previous_rho_gradient_diff on task 3)
  |   Average:        0.434 MB
  Note:  These values currently only include a subset of arrays which are explicitly tracked.
  The "true" memory usage will be greater.
------------------------------------------------------------

------------------------------------------------------------
          Begin self-consistency iteration #    5

  Date     :  20240923, Time     :  145357.563
------------------------------------------------------------
  Pulay mixing of updated and previous charge densities.
  Renormalizing the density to the exact electron count on the 3D integration grid.
  | Formal number of electrons (from input files) :       2.0000000000
  | Integrated number of electrons on 3D grid     :       2.0000000000
  | Charge integration error                      :       0.0000000000
  | Normalization factor for density and gradient :       1.0000000000

  Evaluating partitioned Hartree potential by multipole expansion.
  | Original multipole sum: apparent total charge =  -0.445470E-15
  | Sum of charges compensated after spline to logarithmic grids =   0.222544E-03
  | Analytical far-field extrapolation by fixed multipoles:
  | Hartree multipole sum: apparent total charge =  -0.000000E+00
  Summing up the Hartree potential.
  Time summed over all CPUs for potential: real work        0.007 s, elapsed        0.007 s
  | RMS charge density error from multipole expansion :   0.417001E-02
  | Average real-space part of the electrostatic potential :      0.00271249 eV

  Integrating Hamiltonian matrix: batch-based integration.
  Time summed over all CPUs for integration: real work        0.015 s, elapsed        0.016 s

  Updating Kohn-Sham eigenvalues and eigenvectors using ELSI and the ELPA eigensolver.
  Starting ELPA eigensolver
  Finished transformation to standard eigenproblem
  | Time :     0.000 s
  Finished solving standard eigenproblem
  | Time :     0.001 s
  Finished back-transformation of eigenvectors
  | Time :     0.000 s

  Obtaining occupation numbers and electronic chemical potential using ELSI.
  | Note that, for insulating systems, the printed 'chemical potential' value is not uniquely defined.
  | It can be anywhere in the energy gap, as long as it correctly separates occupied and unoccupied states.
  | In systems with a gap, the physically relevant chemical potential is the VBM or HOMO.

  | Chemical potential (Fermi level):    -4.61519739 eV
  Highest occupied state (VBM) at    -10.22656783 eV (relative to internal zero)
  | Occupation number:      2.00000000
  | K-point:       1 at    0.000000    0.000000    0.000000 (in units of recip. lattice)

  Lowest unoccupied state (CBM) at     0.99617304 eV (relative to internal zero)
  | Occupation number:      0.00000000
  | K-point:       1 at    0.000000    0.000000    0.000000 (in units of recip. lattice)

  The gap value is above 0.2 eV. Unless you are using a very sparse k-point grid,
  this system is most likely an insulator or a semiconductor.
  ESTIMATED overall HOMO-LUMO gap:     11.22274088 eV between HOMO at k-point 1 and LUMO at k-point 1

  Total energy components:
  | Sum of eigenvalues            :          -0.75163892 Ha         -20.45313566 eV
  | XC energy correction          :          -0.69727150 Ha         -18.97372283 eV
  | XC potential correction       :           0.89516112 Ha          24.35857348 eV
  | Free-atom electrostatic energy:          -0.34557670 Ha          -9.40362035 eV
  | Hartree energy correction     :          -0.26741339 Ha          -7.27668852 eV
  | Entropy correction            :          -0.00000000 Ha          -0.00000000 eV
  | ---------------------------
  | Total energy                  :          -1.16673938 Ha         -31.74859390 eV
  | Total energy, T -> 0          :          -1.16673938 Ha         -31.74859390 eV  <-- do not rely on this value for anything but (periodic) metals
  | Electronic free energy        :          -1.16673938 Ha         -31.74859390 eV

  Derived energy quantities:
  | Kinetic energy                :           1.15943000 Ha          31.54969550 eV
  | Electrostatic energy          :          -1.62889788 Ha         -44.32456657 eV
  | Energy correction for multipole
  | error in Hartree potential    :          -0.00112522 Ha          -0.03061872 eV
  | Sum of eigenvalues per atom                           :         -10.22656783 eV
  | Total energy (T->0) per atom                          :         -15.87429695 eV  <-- do not rely on this value for anything but (periodic) metals
  | Electronic free energy per atom                       :         -15.87429695 eV
  Evaluating new KS density using the density matrix
  Evaluating density matrix
  Finished density matrix calculation
  | Time :     0.000 s
  Time summed over all CPUs for getting density from density matrix: real work        0.016 s, elapsed        0.017 s
  Integration grid: deviation in total charge (<rho> - N_e) =   1.776357E-15

  Self-consistency convergence accuracy:
  | Change of charge density      :  0.7722E-02
  | Change of unmixed KS density  :  0.4608E-03
  | Change of sum of eigenvalues  :  0.1097E-02 eV
  | Change of total energy        : -0.1123E-04 eV


------------------------------------------------------------
  End self-consistency iteration #     5       :  max(cpu_time)    wall_clock(cpu1)
  | Time for this iteration                     :        0.018 s           0.018 s
  | Charge density update                       :        0.004 s           0.004 s
  | Density mixing                              :        0.000 s           0.001 s
  | Hartree multipole update                    :        0.000 s           0.000 s
  | Hartree multipole summation                 :        0.009 s           0.008 s
  | Integration                                 :        0.004 s           0.004 s
  | Solution of K.-S. eqns.                     :        0.001 s           0.001 s
  | Total energy evaluation                     :        0.000 s           0.000 s

  Partial memory accounting:
  | Current value for overall tracked memory usage:
  |   Minimum:        1.379 MB (on task 0)
  |   Maximum:        1.415 MB (on task 3)
  |   Average:        1.398 MB
  | Peak value for overall tracked memory usage:
  |   Minimum:        1.641 MB (on task 0 after allocating gradient_basis_wave)
  |   Maximum:        1.677 MB (on task 3 after allocating gradient_basis_wave)
  |   Average:        1.660 MB
  | Largest tracked array allocation so far:
  |   Minimum:        0.427 MB (previous_rho_gradient_diff on task 0)
  |   Maximum:        0.440 MB (previous_rho_gradient_diff on task 3)
  |   Average:        0.434 MB
  Note:  These values currently only include a subset of arrays which are explicitly tracked.
  The "true" memory usage will be greater.
------------------------------------------------------------

------------------------------------------------------------
          Begin self-consistency iteration #    6

  Date     :  20240923, Time     :  145357.582
------------------------------------------------------------
  Pulay mixing of updated and previous charge densities.
  Renormalizing the density to the exact electron count on the 3D integration grid.
  | Formal number of electrons (from input files) :       2.0000000000
  | Integrated number of electrons on 3D grid     :       2.0000000000
  | Charge integration error                      :       0.0000000000
  | Normalization factor for density and gradient :       1.0000000000

  Evaluating partitioned Hartree potential by multipole expansion.
  | Original multipole sum: apparent total charge =   0.527448E-14
  | Sum of charges compensated after spline to logarithmic grids =   0.222482E-03
  | Analytical far-field extrapolation by fixed multipoles:
  | Hartree multipole sum: apparent total charge =  -0.000000E+00
  Summing up the Hartree potential.
  Time summed over all CPUs for potential: real work        0.006 s, elapsed        0.007 s
  | RMS charge density error from multipole expansion :   0.416514E-02
  | Average real-space part of the electrostatic potential :      0.00270898 eV

  Integrating Hamiltonian matrix: batch-based integration.
  Time summed over all CPUs for integration: real work        0.016 s, elapsed        0.017 s

  Updating Kohn-Sham eigenvalues and eigenvectors using ELSI and the ELPA eigensolver.
  Starting ELPA eigensolver
  Finished transformation to standard eigenproblem
  | Time :     0.000 s
  Finished solving standard eigenproblem
  | Time :     0.000 s
  Finished back-transformation of eigenvectors
  | Time :     0.000 s

  Obtaining occupation numbers and electronic chemical potential using ELSI.
  | Note that, for insulating systems, the printed 'chemical potential' value is not uniquely defined.
  | It can be anywhere in the energy gap, as long as it correctly separates occupied and unoccupied states.
[...]
      7        0.28027249      1.0011636394
      8        0.41323158      1.0009102418
      9        0.60498765      1.0006303821
     10        0.89198906      1.0003824089
     11        1.34507556      1.0002022458
     12        2.11695324      1.0000917417
     13        3.58838112      1.0000341521
     14        6.94220398      1.0000094476
     15       17.54240715      1.0000015013
     16       93.84794477      1.0000000526

 ojo gwblocks          62          62           1

  Starting the main loop of GW computation

 lvlkqsize:   4.23388815    
  finished 100.0% of GW computation. CPU/Clock time [min]:        0.054       0.054

  Time for evaluate_polarisability_kspace_list [s]:      0.01
 GWOUT:    18.772883394366939     
  Atomic logSBT for 2-center Coulomb matrix    :  max(cpu_time)    wall_clock(cpu1)
  | TB initialization                           :        0.102 s           0.103 s
  | TB usage                                    :        0.000 s           0.000 s


  Analytical continuation of the self-energy starts...
  Integrating local/semilocal matrix: batch-based integration.
  Time summed over all CPUs for integration: real work        0.019 s, elapsed        0.029 s => Consider using load balancing!

------------------------------------------------------------------------------
  Start to calculate the exact-exchange for each single-particle level ...

------------------------------------------------------------------------------
  Start to calculate DFT xc contribution for each single-particle level ...

  Quasi particle energy calculation for periodic systems starts ...

    Using self-consistent/graphical solver to obtain QP energies.

--------------------------------------------------------------------------------------------
               GW quasi-particle energy levels

               | # of k_points in 1st BZ:      1

               e_qp = e_gs + e_x^ex - e_xc^gs + e_c^nloc

  state     occ_num        e_gs        e_x^ex        e_xc^gs        e_c^nloc        e_qp
------------------------------------------------------------------------------------------------------
  K_point    1 :           0.0000          0.0000          0.0000
---------------------------------------------------------------------------------------------------
       1    2.0000      -10.3811      -17.8757      -12.0661        0.3856      -15.8051
       2    0.0000        0.9294       -1.4328       -4.6824       -0.5661        3.6130
       3    0.0000        1.9626       -0.7996       -2.7389       -0.2960        3.6059
       4    0.0000        4.1316       -0.9803       -4.4534       -0.6038        7.0008
       5    0.0000        4.1316       -0.9803       -4.4534       -0.6038        7.0008
       6    0.0000        7.3863       -1.4145       -4.3756       -0.7266        9.6209
       7    0.0000       10.0285       -0.2614       -3.4213       -0.9029       12.2855
       8    0.0000       10.1855       -0.2374       -3.3640       -0.7646       12.5475
       9    0.0000       10.1855       -0.2374       -3.3640       -0.7646       12.5475
      10    0.0000       12.4561       -1.2889       -4.5153       -1.0152       14.6673
      11    0.0000       16.6580       -0.9378       -3.8661       -1.2325       18.3538
      12    0.0000       23.7265       -0.6007       -5.8063       -0.6733       28.2588
      13    0.0000       23.7265       -0.6007       -5.8063       -0.6733       28.2588
      14    0.0000       24.0371       -1.8973       -8.0088       -1.4343       28.7143
      15    0.0000       24.0371       -1.8973       -8.0088       -1.4343       28.7143
      16    0.0000       28.2974       -0.9940       -6.1103       -0.1794       33.2343
      17    0.0000       34.9539       -0.9139       -7.0708       -1.3285       39.7823
      18    0.0000       36.0458       -0.7588       -6.5712       -2.1521       39.7062
      19    0.0000       36.0458       -0.7588       -6.5712       -2.1521       39.7062
      20    0.0000       37.7773       -0.4088       -5.7642       -1.2409       41.8919
      21    0.0000       37.7773       -0.4088       -5.7642       -1.2409       41.8919
      22    0.0000       38.7847       -0.3253       -5.5060       -0.7603       43.2051
      23    0.0000       38.7847       -0.3253       -5.5060       -0.7603       43.2051
      24    0.0000       41.8554       -1.8559       -8.5460       -3.2519       45.2937
      25    0.0000       44.7707       -0.7279       -6.4262        1.0159       51.4850
      26    0.0000       70.9281       -0.6978       -7.9346        0.2153       78.3801
      27    0.0000       70.9281       -0.6978       -7.9346        0.2153       78.3801
      28    0.0000       79.1617       -1.5352      -10.8973        0.0842       88.6080
      29    0.0000       84.7486       -0.5847       -8.5922       -0.8391       91.9169
      30    0.0000       84.7486       -0.5847       -8.5922       -0.8391       91.9169
      31    0.0000       87.9486       -1.0266      -10.2041       -0.4584       96.6677
      32    0.0000      102.9586       -1.0924      -11.1106       -1.7168      111.2600
      33    0.0000      102.9587       -1.0924      -11.1106       -1.7168      111.2602
      34    0.0000      106.8243       -1.8926      -13.2263       -1.4779      116.6801
      35    0.0000      106.8243       -1.8926      -13.2263       -1.4779      116.6801
      36    0.0000      107.2201       -0.4899       -7.5535       -0.2977      113.9860
      37    0.0000      123.2790       -0.4223       -8.7525        0.7941      132.4032
      38    0.0000      123.2790       -0.4223       -8.7525        0.7941      132.4032
      39    0.0000      123.6760       -0.5361       -9.3974       -1.0481      131.4893
      40    0.0000      123.6766       -0.5361       -9.3975       -1.0481      131.4899
      41    0.0000      131.7884       -1.5379      -12.8917       -1.5421      141.6001
      42    0.0000      137.2815       -0.7479      -10.6876       -1.6743      145.5469
      43    0.0000      137.2815       -0.7479      -10.6876       -1.6743      145.5469
      44    0.0000      143.2091       -0.6018      -10.0314       -1.4625      151.1762
      45    0.0000      143.2103       -0.6018      -10.0314       -1.4626      151.1773
      46    0.0000      145.3651       -0.7603      -10.8841       -2.0052      153.4836
      47    0.0000      145.3651       -0.7603      -10.8841       -2.0052      153.4836
      48    0.0000      159.6600       -0.9767      -11.5784       -1.9752      168.2866
      49    0.0000      177.8574       -0.4010       -9.6525        0.4545      187.5634
      50    0.0000      199.3158       -0.6028      -11.3604        0.5615      210.6349
      51    0.0000      199.3166       -0.6028      -11.3604        0.5616      210.6358
      52    0.0000      200.6881       -0.6656      -11.7770       -1.2684      210.5310
      53    0.0000      200.6881       -0.6656      -11.7770       -1.2684      210.5310
      54    0.0000      202.3082       -0.9768      -13.6401       -2.0372      212.9342
      55    0.0000      212.0978       -0.8952      -12.4209       -1.3151      222.3084
      56    0.0000      212.0978       -0.8952      -12.4209       -1.3150      222.3085
      57    0.0000      259.3977       -1.2932      -16.0814       -2.7829      271.4029
      58    0.0000      266.9680       -0.4165       -9.1523       -0.2158      275.4880
      59    0.0000      313.1756       -0.6689      -13.3250       -0.6092      325.2225
      60    0.0000      313.1756       -0.6689      -13.3250       -0.6092      325.2225
      61    0.0000      316.4447       -1.1588      -16.7817       -0.5980      331.4696
      62    0.0000      886.3911       -0.5917      -19.3498        0.6422      905.7914
---------------------------------------------------------------------------------------------------

  Valence band maximum (VBM) from the GW calculation is    -15.80511004 eV (relative to internal zero)
          at the k point   0.0000  0.0000  0.0000

  Conduction band mininum (CBM) from the GW calculation is      3.61301189 eV (relative to internal zero)
          at the k point   0.0000  0.0000  0.0000

  Direct band gap from the GW calculation is     19.41812193 eV at the k point   0.0000  0.0000  0.0000

  Indirect band gap from the GW calculation is     19.41812193 eV

------------------------------------------------------------------------------
  Final output of selected total energy values:

  The following output summarizes some interesting total energy values
  at the end of a run (AFTER all relaxation, molecular dynamics, etc.).

  | Total energy of the DFT / Hartree-Fock s.c.f. calculation      :            -31.747083463 eV
  | Final zero-broadening corrected energy (caution - metals only) :            -31.747083463 eV
  | For reference only, the value of 1 Hartree used in FHI-aims is :             27.211384500 eV
  | For reference only, the overall average (free atom contribution
  | + realspace contribution) of the electrostatic potential after
  | s.c.f. convergence is                                          :             -0.004998019 eV

  Before relying on these values, please be sure to understand exactly which
  total energy value is referred to by a given number. Different objects may
  all carry the same name 'total energy'. Definitions:

  Total energy of the DFT / Hartree-Fock s.c.f. calculation:
  | Note that this energy does not include ANY quantities calculated after the
  | s.c.f. cycle, in particular not ANY RPA, MP2, etc. many-body perturbation terms.

  Final zero-broadening corrected energy:
  | For metallic systems only, a broadening of the occupation numbers at the Fermi
  | level can be extrapolated back to zero broadening by an electron-gas inspired
  | formula. For all systems that are not real metals, this value can be
  | meaningless and should be avoided.

------------------------------------------------------------------------------
  Methods described in the following list of references were used in this FHI-aims run.
  If you publish the results, please make sure to cite these reference if they apply.
  FHI-aims is an academic code, and for our developers (often, Ph.D. students
  and postdocs), scientific credit in the community is essential.
  Thank you for helping us!

  For any use of FHI-aims, please cite:

    Volker Blum, Ralf Gehrke, Felix Hanke, Paula Havu, Ville Havu,
    Xinguo Ren, Karsten Reuter, and Matthias Scheffler
    'Ab initio molecular simulations with numeric atom-centered orbitals'
    Computer Physics Communications 180, 2175-2196 (2009)
    http://doi.org/10.1016/j.cpc.2009.06.022


  For Hartree-Fock, hybrid functionals, or many-body perturbation theory used in your run, please cite:

    Xinguo Ren, Patrick Rinke, Volker Blum, Juergen Wieferink, Alex Tkatchenko,
    Andrea Sanfilippo, Karsten Reuter, and Matthias Scheffler,
    'Resolution-of-identity approach to Hartree-Fock, hybrid density functionals,
    RPA, MP2, and GW with numeric atom-centered orbital basis functions'
    New Journal of Physics 14, 053020 (2012).
    http://doi.org/10.1088/1367-2630/14/5/053020


  The provided symmetry information was generated with SPGlib:

    Atsushi Togo, Yusuke Seto, Dimitar Pashov
    SPGlib 1.7.3 obtained from http://spglib.sourceforge.net
    Licence: New BSD license
    Copyright (C) 2008 Atsushi Togo


  The ELSI infrastructure was used in your run to solve the Kohn-Sham electronic structure.
  Please check out https://wordpress.elsi-interchange.org to learn more.
  If scalability is important for your project, please acknowledge ELSI by citing:

    V. W-z. Yu, F. Corsetti, A. Garcia, W. P. Huhn, M. Jacquelin, W. Jia,
    B. Lange, L. Lin, J. Lu, W. Mi, A. Seifitokaldani, A. Vazquez-Mayagoitia,
    C. Yang, H. Yang, and V. Blum
    'ELSI: A unified software interface for Kohn-Sham electronic structure solvers'
    Computer Physics Communications 222, 267-285 (2018).
    http://doi.org/10.1016/j.cpc.2017.09.007


  For the real-space grid partitioning and parallelization used in this calculation, please cite:

    Ville Havu, Volker Blum, Paula Havu, and Matthias Scheffler,
    'Efficient O(N) integration for all-electron electronic structure calculation'
    'using numerically tabulated basis functions'
    Journal of Computational Physics 228, 8367-8379 (2009).
    http://doi.org/10.1016/j.jcp.2009.08.008


  The high-level electronic structure method used in your calculation
  employed our efficient localized resolution of identity for the Coulomb operator.
  Some calculations, especially large-scale hybrid density functional theory,
  are only possible thanks to this development. For this feature, please cite:

    Arvid Ihrig, Juergen Wieferink, Igor Ying Zhang, Matti Ropo, Xinguo Ren,
    Patrick Rinke, Matthias Scheffler, and Volker Blum,
    'Accurate localized resolution of identity approach for linear-scaling
    hybrid density functionals and for many-body perturbation theory'
    New Journal of Physics 117, 093020 (2015).
    http://doi.org/10.1088/1367-2630/17/9/093020

  Of course, there are many other important community references, e.g., those cited in the
  above references. Our list is limited to references that describe implementations in the
  FHI-aims code. The reason is purely practical (length of this list) - please credit others as well.

------------------------------------------------------------
          Leaving FHI-aims.
          Date     :  20240923, Time     :  145404.124

          Computational steps:
          | Number of self-consistency cycles          :           17
          | Number of SCF (re)initializations          :            1

          Detailed time accounting                     :  max(cpu_time)    wall_clock(cpu1)
          | Total time                                  :        6.644 s           6.749 s
          | Preparation time                            :        0.024 s           0.036 s
          | Boundary condition initalization            :        0.013 s           0.013 s
          | Grid partitioning                           :        0.003 s           0.003 s
          | Preloading free-atom quantities on grid     :        0.003 s           0.004 s
          | Free-atom superposition energy              :        0.001 s           0.001 s
          | Total time for integrations                 :        0.074 s           0.077 s
          | Product basis setup: Total time             :        0.000 s           0.000 s
          | Product basis: | 2-center integrations     :(       0.000 s)  (       0.000 s)
          | Product basis: | LVL 3-center & coefficient:(       0.000 s)  (       0.000 s)
          | Initialization for periodic correlated calc :        1.735 s           1.751 s
          | Transforming LVL triples to recip. space    :        0.014 s           0.015 s
          | Screened Coulomb matrix W_mn(iw)            :        0.000 s           0.000 s
          | Polarisability matrix Pi_PQ(iw)             :        0.000 s           0.000 s
          | The exact-exchange part of GW calc.         :        1.035 s           1.047 s
          | Total time for polarizability calc.         :        2.415 s           2.442 s
          | Total time for polarizability of k space    :        0.006 s           0.006 s
          | Total time for GW self-energy (regular k) c :        0.805 s           0.823 s
          | Aanalytic contiuation time                  :        0.000 s           0.000 s
          | Total time for solution of K.-S. equations  :        0.018 s           0.020 s
          | Total time for density update               :        0.076 s           0.080 s
          | Total time for mixing                       :        0.003 s           0.005 s
          | Total time for Hartree multipole update     :        0.005 s           0.001 s
          | Total time for Hartree multipole sum        :        0.145 s           0.146 s
          | Total time for total energy evaluation      :        0.001 s           0.001 s
          | Total time for scaled ZORA corrections      :        0.000 s           0.000 s

          Partial memory accounting:
          | Residual value for overall tracked memory usage across tasks:     0.000000 MB (should be 0.000000 MB)
          | Peak values for overall tracked memory usage:
          |   Minimum:       67.064 MB (on task 3 after allocating screened_coulomb_tmp)
          |   Maximum:       88.251 MB (on task 2 after allocating screened_coulomb_tmp)
          |   Average:       77.649 MB
          | Largest tracked array allocation:
          |   Minimum:       14.180 MB (polar_kspace_complex on task 0)
          |   Maximum:       14.180 MB (polar_kspace_complex on task 0)
          |   Average:       14.180 MB
          Note:  These values currently only include a subset of arrays which are explicitly tracked.
          The "true" memory usage will be greater.

          Have a nice day.
------------------------------------------------------------
leaked context IDs detected: mask=0x11cf38000 mask[1]=0x20fbfff
In direct memory block for handle type ATTR, 5 handles are still allocated
In direct memory block for handle type KEYVAL, 1 handles are still allocated
leaked context IDs detected: mask=0x11c6e0000 mask[0]=0xcfffffff
leaked context IDs detected: mask=0x11c6e0000 mask[1]=0x20fbfff
In direct memory block for handle type ATTR, 5 handles are still allocated
In direct memory block for handle type KEYVAL, 1 handles are still allocated
In direct memory block for handle type WIN, 1 handles are still allocated
In indirect memory block 0 for handle type WIN, 1 handles are still allocated
In direct memory block for handle type GROUP, 1 handles are still allocated
In direct memory block for handle type ERRHANDLER, 1 handles are still allocated
In direct memory block for handle type WIN, 1 handles are still allocated
In indirect memory block 0 for handle type WIN, 1 handles are still allocated
In direct memory block for handle type GROUP, 1 handles are still allocated
In direct memory block for handle type ERRHANDLER, 1 handles are still allocated
leaked context IDs detected: mask=0x11cfe8000 mask[0]=0xc7ffffff
leaked context IDs detected: mask=0x11cfe8000 mask[1]=0x20fbfff
In direct memory block for handle type ATTR, 5 handles are still allocated
In direct memory block for handle type KEYVAL, 1 handles are still allocated
leaked context IDs detected: mask=0x118588000 mask[0]=0xdfffffff
leaked context IDs detected: mask=0x118588000 mask[1]=0x20fbfff
In direct memory block for handle type ATTR, 5 handles are still allocated
In direct memory block for handle type KEYVAL, 1 handles are still allocated
In direct memory block for handle type WIN, 1 handles are still allocated
In indirect memory block 0 for handle type WIN, 1 handles are still allocated
In direct memory block for handle type GROUP, 1 handles are still allocated
In direct memory block for handle type ERRHANDLER, 1 handles are still allocated
In direct memory block for handle type WIN, 1 handles are still allocated
In indirect memory block 0 for handle type WIN, 1 handles are still allocated
In direct memory block for handle type GROUP, 1 handles are still allocated
In direct memory block for handle type ERRHANDLER, 1 handles are still allocated
In indirect memory block 0 for handle type COMM, 34 handles are still allocated
In direct memory block for handle type COMM, 4 handles are still allocated
In indirect memory block 0 for handle type COMM, 27 handles are still allocated
In direct memory block for handle type COMM, 4 handles are still allocated
In indirect memory block 0 for handle type COMM, 23 handles are still allocated
In direct memory block for handle type COMM, 1 handles are still allocated
In indirect memory block 0 for handle type COMM, 26 handles are still allocated
