------------------------------------------------------------
          Invoking FHI-aims ...
          Version 200112_2
          Git rev. (modified): 6aec163 Update CHANGELOG
          Compiled on 2021/05/06 at 10:26:37 on host mu01.

          When using FHI-aims, please cite the following reference:

          Volker Blum, Ralf Gehrke, Felix Hanke, Paula Havu,
          Ville Havu, Xinguo Ren, Karsten Reuter, and Matthias Scheffler,
          'Ab Initio Molecular Simulations with Numeric Atom-Centered Orbitals',
          Computer Physics Communications 180, 2175-2196 (2009)

          For any questions about FHI-aims, please visit the aimsclub website
          with its forums and wiki. Contributions to both the forums and the
          wiki are warmly encouraged - they are for you, and everyone is welcome there.

------------------------------------------------------------



  Date     :  20210506, Time     :  102806.258
  Time zero on CPU 1             :   0.106824000000000E+00  s.
  Internal wall clock time zero  :           389528886.258  s.

  FHI-aims created a unique identifier for this run for later identification
  aims_uuid : D3413E78-C76B-4AFC-A4F8-C551BB1ACC49

  Using        1 parallel tasks.
  Task        0 on host cu13 reporting.

  Performing system and environment tests:
  | Environment variable OMP_NUM_THREADS correctly set to 1.
  | Maximum stacksize for task 0: unlimited
  | Current stacksize for task 0: unlimited
  | Checking for scalapack...
  | Testing pdtran()...
  | All pdtran() tests passed.

  Obtaining array dimensions for all initial allocations:
  
  -----------------------------------------------------------------------
  Parsing control.in (first pass over file, find array dimensions only).
  The contents of control.in will be repeated verbatim below
  unless switched off by setting 'verbatim_writeout .false.' .
  in the first line of control.in .
  -----------------------------------------------------------------------
  
  #  Volker Blum, FHI 2004 : Input file for LocalOrb code project
  #
  #  Input file control.in : All computational details for structure geometry.in
  #
  #  * First, general computational parameters:
  #
  #  Physics choices (model):
  #
  #  xc               pbe0
     xc     hf
  #  use_hf_kspace_with_rpa      .true.
  #  qpe_calc         gw
  #  spin             collinear
  #  relativistic     zora scalar 1.e-12
    occupation_type  gaussian 0.005
    RI_method        LVL
    total_energy_method rpa
    use_full_symmetry .true.
    frequency_points 20
  #  rpa_correlation_energy ph
  #  state_lower_limit 3
  #
  #  SCF cycle:
  #
  #  KS_method        parallel
    mixer            pulay
      n_max_pulay    5
      charge_mix_param  0.6
    override_illconditioning .true.
  #  preconditioner kerker 2.0
    sc_accuracy_rho  1E-6
    sc_accuracy_eev  1E-4
    sc_accuracy_etot 1E-6
    sc_iter_limit    100
  #
  #  accuracy / efficiency for normal scf
  #
    basis_threshold  1.e-5
  #  distributed_spline_storage .true.
  #
  #  For MP2
  #
  #  hf_version 0
  #  empty_states     1000
    prodbas_threshold      1.e-4
  #  frozen_core_postSCF   1
  #  auxil_basis     full
  #  partition_acc 1e-20
  #  use_density_matrix_hf   .true.
  #  prodbas_threshold 1.E-3
  #
  #  For periodic
  #
    k_grid 1 1 1
  #  use_density_matrix
  #  packed_matrix_format index
  #  output k_eigenvalue 1
  #  restart  cu.slab.CO.top.pbe.relax
  #  restart_save_iterations 3
  #
  # For relaxation:
  #
  #  relax_geometry bfgs 1e-2
  #  sc_accuracy_forces 1e-4
  #  * Next, specify output options:
  #    - basis
  #    - matrices
  #    - grids
  #    - v_eff
  #    - v_hartree (partitioned Hartree potentials)
  #
    #compute_numerical_stress .true.
  #   output      self_energy
  #  output       basis
  #  output       matrices
  #  output       grids
  #  output       v_eff
  #  output       v_hartree
  #
  #   output band  0.25  0.50  0.75  0.5   0.5   0.5   10 W      L
  #   output band  0.5   0.5   0.5   0.25  0.25  0.25  10 L      Lambda
  #   output band  0.25  0.25  0.25  0     0     0     10        Lambda Gamma
  #   output band  0     0       0   0.00  0.25  0.25  10        Gamma  Delta
  #   output band  0.00  0.25  0.25  0     0.5   0.5   10 Delta  X
  #   output band  0     0.5   0.5   0.125 0.5   0.625 10 X      Z
  #   output band  0.125 0.5   0.625 0.25  0.50  0.75  10 Z      W
  #   output band  0.25  0.50  0.75  0.375 0.375 0.75  10 W      K
  ################################################################################
  #
  #  FHI-aims code project
  #  VB, Fritz-Haber Institut, 2009
  #
  #  Suggested "light" defaults for He atom (to be pasted into control.in file)
  #  Be sure to double-check any results obtained with these settings for post-processing,
  #  e.g., with the "tight" defaults and larger basis sets.
  #
  ################################################################################
    species        He
  #     global species definitions
      nucleus             2
      mass                4.002602
  #
      l_hartree           4
  #
      cut_pot             3.5  1.5  1.0
      basis_dep_cutoff    1e-4
  #
      radial_base         27 5.0
      radial_multiplier   1
      angular_grids       specified
        division   0.3349  110
        division   0.4719  194
        division   0.5352  302
  #      division   1.8809  770
  #      outer_grid    770
        outer_grid    302
  ################################################################################
  #
  #  Definition of "minimal" basis
  #
  ################################################################################
  #     valence basis states
      valence      1  s   2.
  #     ion occupancy
      ion_occ      1  s   1.
  ################################################################################
  #
  #  Suggested additional basis functions. For production calculations,
  #  uncomment them one after another (the most important basis functions are
  #  listed first).
  #
  #  Constructed for dimers: 1.25 A, 1.75 A, 2.40 A, 3.25 A
  #
  #  Noble gas symmetric dimers converge quickly in DFT. If you find that
  #  you require a larger basis than tier 2, please contact us - VB, FHI.
  #
  ################################################################################
  #  "First tier" - improvements: -33.45 meV to -13.84 meV
       hydro 1 s 0.85
       hydro 2 p 3.5
  #  "Second tier" - improvements: -0.70 meV to -0.05 meV
  #     hydro 3 d 7.2
  #     hydro 3 s 3
  #     hydro 3 p 4.9
  #     hydro 4 f 12
  #prodbas_acc  0.9999
  #max_n_prodbas 0
  #max_l_prodbas 0
  
  -----------------------------------------------------------------------
  Completed first pass over input file control.in .
  -----------------------------------------------------------------------
  
  
  -----------------------------------------------------------------------
  Parsing geometry.in (first pass over file, find array dimensions only).
  The contents of geometry.in will be repeated verbatim below
  unless switched off by setting 'verbatim_writeout .false.' .
  in the first line of geometry.in .
  -----------------------------------------------------------------------
  
  lattice_vector  0.0000      2.4      2.4
  lattice_vector  2.4      0.0000        2.4
  lattice_vector  2.4    2.4        0.0000
  
  atom       0.00000000     0.00000000     0            He
  
  -----------------------------------------------------------------------
  Completed first pass over input file geometry.in .
  -----------------------------------------------------------------------
  

  Basic array size parameters:
  | Number of species                 :        1
  | Number of atoms                   :        1
  | Number of lattice vectors         :        3
  | Max. basis fn. angular momentum   :        1
  | Max. atomic/ionic basis occupied n:        1
  | Max. number of basis fn. types    :        2
  | Max. radial fns per species/type  :        2
  | Max. logarithmic grid size        :     1187
  | Max. radial integration grid size :       27
  | Max. angular integration grid size:      302
  | Max. angular grid division number :        8
  | Radial grid for Hartree potential :     1187
  | Number of spin channels           :        1

------------------------------------------------------------
          Reading file control.in.
------------------------------------------------------------
 
  Hartree-Fock calculation starts ...... 
  Attention: this version of Hartree-Fock employs an auxiliary basis. 
 
  Occupation type: Gaussian broadening, width =   0.500000E-02 eV.
  The 'LVL' version of RI (resolution of identity) technique is used.
  ** This is a localized expansion of all basis function products.
     Its intended use are Hartree-Fock and hybrid functionals.
     For RPA, MP2, GW, etc., LVL is not yet as accurate. In those cases, check carefully.
  RPA correlation energy calculation will be started after the DFT/HF calculation.
  Using full point group symmetry in periodic RPA/GW calculations.
  Number of frequency points used for the self-energy calculation:     20
  Using pulay charge density mixing.
  Pulay mixing - number of memorized iterations:    5
  Charge density mixing - mixing parameter:     0.6000
  override_illconditioning: Explicitly overriding any built-in checks for an ill-conditioned overlap matrix.
  *** WARNING: If you use this flag, you should really know what you are doing.
  *** DO NOT keep this flag set by default in all your control.in files.
  Convergence accuracy of self-consistent charge density:  0.1000E-05
  Convergence accuracy of sum of eigenvalues:  0.1000E-03
  Convergence accuracy of total energy:  0.1000E-05
  Maximum number of s.-c. iterations  :   100
  Threshold for basis singularities:  0.1000E-04
  Threshold for auxiliary basis singularities:  0.1000E-03
  Found k-point grid:         1         1         1
 
  Reading configuration options for species He                  .
  | Found nuclear charge :   2.0000
  | Found atomic mass :    4.00260200000000      amu
  | Found l_max for Hartree potential  :   4
  | Found cutoff potl. onset [A], width [A], scale factor :    3.50000    1.50000    1.00000
  | Threshold for basis-dependent cutoff potential is   0.100000E-03
  | Found data for basic radial integration grid :    27 points, outermost radius =    5.000 A
  | Found multiplier for basic radial grid :   1
  | Found angular grid specification: user-specified.
  | Specified grid contains     4 separate shells.
  | Check grid settings after all constraints further below.
  | Found free-atom valence shell :  1 s   2.000
  | No ionic wave fns used. Skipping ion_occ.
  | Found hydrogenic basis function :  1 s   0.850
  | Found hydrogenic basis function :  2 p   3.500
  Species He                  : Missing cutoff potential type.
  Defaulting to exp(1/x)/(1-x)^2 type cutoff potential.
  Species He: No 'logarithmic' tag. Using default grid for free atom:
  | Default logarithmic grid data [bohr] : 0.1000E-03 0.1000E+03 0.1012E+01
  Species He: On-site basis accuracy parameter (for Gram-Schmidt orthonormalisation) not specified.
  Using default value basis_acc =  0.1000000E-03.
  Species He                  : Using default innermost maximum threshold i_radial=  2 for radial functions.
  Species He                  : Default cutoff onset for free atom density etc. : 0.35000000E+01 AA.
  Species He                  : Basic radial grid will be enhanced according to radial_multiplier =   1, to contain    27 grid points.
 
  Finished reading input file 'control.in'. Consistency checks are next.
 
  MPI_IN_PLACE appears to work with this MPI implementation.
  | Keeping use_mpi_in_place .true. (see manual).
  Species He: Using default value for prodbas_acc =   1.000000E-04.
  Species He: Using default value max_l_prodbas =    20.
  Target number of points in a grid batch is not set. Defaulting to  100
  Method for grid partitioning is not set. Defaulting to parallel hash+maxmin partitioning.
  Batch size limit is not set. Defaulting to    200
  By default, will store active basis functions for each batch.
  If in need of memory, prune_basis_once .false. can be used to disable this option.
  communication_type for Hartree potential was not specified.
  Defaulting to calc_hartree .
  Pulay mixer: Number of initial linear mixing iterations not set.
  Defaulting to    0 iterations.
  Work space size for distributed Hartree potential not set.
  Defaulting to   0.200000E+03 MB.
  Algorithm-dependent basis array size parameters:
  | n_max_pulay                         :        5
  Presetting      1001 iterations before the initial mixing cycle
  is restarted anyway using the sc_init_iter criterion / keyword.
  Presetting a factor      1.000 between actual scf density residual
  and density convergence criterion sc_accuracy_rho below which sc_init_iter
  takes no effect.
  Calculation of forces was not defined in control.in. No forces will be calculated.
  Geometry relaxation not requested: no relaxation will be performed.
  No accuracy limit for integral partition fn. given. Defaulting to  0.1000E-14.
  No threshold value for u(r) in integrations given. Defaulting to  0.1000E-05.
  No accuracy for occupation numbers given. Defaulting to  0.1000E-12.
  No threshold value for occupation numbers given. Defaulting to  0.0000E+00.
  No accuracy for fermi level given. Defaulting to  0.1000E-19.
  Maximum # of iterations to find E_F not set. Defaulting to  200.
  Preferred method for the eigenvalue solver ('KS_method') not specified in 'control.in'.
  Defaulting to serial version LAPACK (via ELSI).
  Will not use alltoall communication since running on < 1024 CPUs.
  partition_type (choice of integration weights) for integrals was not specified.
  | Using a version of the partition function of Stratmann and coworkers ('stratmann_sparse').
  | At each grid point, the set of atoms used to build the partition table is smoothly restricted to
  | only those atoms whose free-atom density would be non-zero at that grid point.
  Partitioning for Hartree potential was not defined. Using partition_type for integrals.
  | Adjusted default value of keyword multip_moments_threshold to:       0.10000000E-11
  | This value may affect high angular momentum components of the Hartree potential in periodic systems.
  Spin handling was not defined in control.in. Defaulting to unpolarized case.
  No q(lm)/r^(l+1) cutoff set for long-range Hartree potential.
  | Using default value of  0.100000E-09 .
  | Verify using the multipole_threshold keyword.
  Defaulting to new monopole extrapolation.
  Density update method: automatic selection selected.
  Using density matrix based charge density update.
  Using density matrix based charge density update.
  Using packed matrix style: index .
 * WARNING: This is an experimental version of the periodic RPA implemenation.
 * We are still actively working on it to improve the efficiency and reliability. 
 * Do not rely on any results you obtained from periodic RPA calculation.
  Coulomb operator: Defaulting to screening threshold for four-center integrals:   0.100000E-06
  Coulomb operator: Defaulting to screening threshold for Coulomb matrix:   0.100000E-09
  Coulomb operator: Defaulting to logarithmic spherical Bessel transform integrals (use_logsbt .true.).
  Defaulting to use full k-point grid (no symmetry reduction).
  Charge integration errors on the 3D integration grid will be compensated
  by explicit normalization and distribution of residual charges.
  Use the "compensate_multipole_errors" flag to change this behaviour.
  LVL not implemented with density matrix yet
  -> switching to transformed overlap
  LVL probably works better with logsbt
  Default to 1D ("use_logsbt") integrations for auxiliary 2-center integrals.
  Default onset of logarithmic r-grid for SBT is-38.000000000000
  Default onset of logarithmic k-grid for SBT is-25.000000000000
  Default range of logarithmic r- and k-grid for SBT is 45.000000000000
  Default number of logarithmic r- and k-grid for SBT is  4096
------------------------------------------------------------


------------------------------------------------------------
          Reading geometry description geometry.in.
------------------------------------------------------------
 * Warning! You did not set the 'relativistic' flag in input file 'control.in'.
 * Since you are not attempting to treat any elements beyond Ca(Z=20), FHI-aims
 * will default to 'relativistic none'.
 * You must ensure that this is really what you want!!
 * For example, DO NOT compute total-energy differences between results from
 * different settings of the 'relativistic' flag.
  Input structure read successfully.
  The structure contains        1 atoms,  and a total of          2.000 electrons.

  Input geometry:
  | Unit cell:
  |        0.00000000        2.40000000        2.40000000
  |        2.40000000        0.00000000        2.40000000
  |        2.40000000        2.40000000        0.00000000
  | Atomic structure:
  |       Atom                x [A]            y [A]            z [A]
  |    1: Species He            0.00000000        0.00000000        0.00000000

  Lattice parameters for 3D lattice (in Angstroms) :     3.394113    3.394113    3.394113
  Angle(s) between unit vectors (in degrees)       :    60.000000   60.000000   60.000000

  | The smallest distance between any two atoms is         3.39411255 AA.
  | The first atom of this pair is atom number                      1 .
  | The second atom of this pair is atom number                     1 .
  | Wigner-Seitz cell of the first atom image          -1     0     1 .
  | (The Wigner-Seitz cell of the second atom is 0 0 0  by definition.)

  Symmetry information by spglib:
  | Precision set to  0.1E-04
  | Number of Operations  : 48
  | Space group           : 225
  | International         : Fm-3m
  | Schoenflies           : Oh^5

  Quantities derived from the lattice vectors:
  | Reciprocal lattice vector 1: -1.308997  1.308997  1.308997
  | Reciprocal lattice vector 2:  1.308997 -1.308997  1.308997
  | Reciprocal lattice vector 3:  1.308997  1.308997 -1.308997
  | Unit cell volume                               :   0.276480E+02  A^3

  Range separation radius for Ewald summation (hartree_convergence_parameter):      4.37087361 bohr.

  Fractional coordinates:
                         L1                L2                L3
       atom_frac         0.00000000        0.00000000        0.00000000  He

  Number of empty states per atom not set in control.in .
  | Since you are using a method that relies on the unoccupied spectrum
  | (MP2,GW,RPA et al.), will use the full Hamiltonian size (see below)
  | as the max. possible number of states (occupied plus empty).

  Structure-dependent array size parameters: 
  | Maximum number of distinct radial functions  :        3
  | Maximum number of basis functions            :        5
  | Number of Kohn-Sham states (occupied + empty):        5
------------------------------------------------------------
  Setting Coulomb cut-width to  1.091868692359 * rcut.
  Setting Coulomb cutting radius rcut to  1.697056274848 A.

------------------------------------------------------------
          Preparing all fixed parts of the calculation.
------------------------------------------------------------
  Determining machine precision:
    2.225073858507201E-308
  Setting up grids for atomic and cluster calculations.

  Creating wave function, potential, and density for free atoms.

  Species: He

  List of occupied orbitals and eigenvalues:
    n    l              occ      energy [Ha]    energy [eV]
    1    0           2.0000        -0.570243       -15.5171

  Creating fixed part of basis set: Ionic, confined, hydrogenic.
 
  He                   hydrogenic:
 
  List of hydrogenic basis orbitals: 
    n    l      effective z      eigenvalue [eV]  inner max. [A]     outer max. [A]     outer radius [A]   
    1    0         0.850000        -9.8241           0.619553           0.619553           4.544486
    2    1         3.500000       -41.6670           0.604588           0.604588           3.737119
 

  Adding cutoff potential to free-atom effective potential.
  Creating atomic-like basis functions for current effective potential.

  Species He                  :

  List of atomic basis orbitals and eigenvalues:
    n    l      energy [Ha]    energy [eV]    outer radius [A]
    1    0        -0.570243       -15.5171       4.434721

  Assembling full basis from fixed parts.
  | Species He :   atomic orbital   1 s accepted.
  | Species He :    hydro orbital   1 s accepted.
  | Species He :    hydro orbital   2 p accepted.
 
  Basis size parameters after reduction:
  | Total number of radial functions:        3
  | Total number of basis functions :        5
 
  Per-task memory consumption for arrays in subroutine allocate_ext:
  |           0.456120MB.
  Testing on-site integration grid accuracy.
  |  Species  Function  <phi|h_atom|phi> (log., in eV)  <phi|h_atom|phi> (rad., in eV)
           1        1                -15.5171018661                -15.5170943663
           1        2                 11.5518293517                 11.5549995995
           1        3                 23.3703512871                 23.3703539128

  Preparing densities etc. for the partition functions (integrals / Hartree potential).

  Preparations completed.
  max(cpu_time)          :      0.046 s.
  Wall clock time (cpu1) :      0.046 s.
------------------------------------------------------------

------------------------------------------------------------
          Begin self-consistency loop: Initialization.

          Date     :  20210506, Time     :  102806.395
------------------------------------------------------------

  Initializing index lists of integration centers etc. from given atomic structure:
  Mapping all atomic coordinates to central unit cell.

  Initializing the k-points
  | Number of k-points                             :         1
  | Consuming          0 KiB for k_phase_exx.
  The eigenvectors in the calculations are REAL.
  | K-points in task   0:         1
  | Number of basis functions in the Hamiltonian integrals :       177
  | Number of basis functions in a single unit cell        :         5
  | Number of centers in hartree potential         :       603
  | Number of centers in hartree multipole         :       201
  | Number of centers in electron density summation:       135
  | Number of centers in basis integrals           :       141
  | Number of centers in integrals                 :        69
  | Number of centers in hamiltonian               :       135
  | Consuming          2 KiB for k_phase.
  | Number of super-cells (origin) [n_cells]                     :        3375
  | Number of super-cells (after PM_index) [n_cells]             :         136
  | Number of super-cells in hamiltonian [n_cells_in_hamiltonian]:         136
  | Size of matrix packed + index [n_hamiltonian_matrix_size] :        1402
  | Estimated reciprocal-space cutoff momentum G_max:         2.12374569 bohr^-1 .
  | Reciprocal lattice points for long-range Hartree potential:      26
  Partitioning the integration grid into batches with parallel hashing+maxmin method.
  | Number of batches:       64
  | Maximal batch size:      93
  | Minimal batch size:      89
  | Average batch size:      91.031
  | Standard deviation of batch sizes:       1.403

  Integration load balanced across     1 MPI tasks.
  Work distribution over tasks is as follows:
  Task     0 has       5826 integration points.
  Initializing partition tables, free-atom densities, potentials, etc. across the integration grid (initialize_grid_storage).
  | initialize_grid_storage: Actual outermost partition radius vs. multipole_radius_free
  | (-- VB: in principle, multipole_radius_free should be larger, hence this output)
  | Species        1: Confinement radius =              4.999999999999999 AA, multipole_radius_free =              5.011396146151729 AA.
  | Species        1: outer_partition_radius set to              5.011396146151729 AA .
  | The sparse table of interatomic distances needs        111.14 kbyte instead of       159.05 kbyte of memory.
  | Net number of integration points:     5826
  | of which are non-zero points    :     5316
  | Numerical average free-atom electrostatic potential    :     -0.78601847 eV
  Renormalizing the initial density to the exact electron count on the 3D integration grid.
  | Initial density: Formal number of electrons (from input files) :       2.0000000000
  | Integrated number of electrons on 3D grid     :       1.9999897547
  | Charge integration error                      :      -0.0000102453
  | Normalization factor for density and gradient :       1.0000051227
  Renormalizing the free-atom superposition density to the exact electron count on the 3D integration grid.
  | Formal number of electrons (from input files) :       2.0000000000
  | Integrated number of electrons on 3D grid     :       1.9999897547
  | Charge integration error                      :      -0.0000102453
  | Normalization factor for density and gradient :       1.0000051227
  Obtaining max. number of non-zero basis functions in each batch (get_n_compute_maxes).
  | Maximal number of non-zero basis functions:       99 in task     0
  Allocating        0.000 MB for KS_eigenvector
  Integrating Hamiltonian matrix: batch-based integration.
  Time summed over all CPUs for integration: real work        0.083 s, elapsed        0.083 s
  Integrating overlap matrix.
  Time summed over all CPUs for integration: real work        0.066 s, elapsed        0.066 s

  Updating Kohn-Sham eigenvalues and eigenvectors using ELSI and the (modified) LAPACK eigensolver.
  Singularity check in k-point 1, task 0 (analysis for other k-points/tasks may follow below):
  Overlap matrix is not singular
  | Lowest and highest eigenvalues :  0.9456E+00,  0.2763E+01
  Finished singularity check of overlap matrix
  | Time :     0.000 s
  Starting LAPACK eigensolver
  Finished Cholesky decomposition
  | Time :     0.000 s
  Finished transformation to standard eigenproblem
  | Time :     0.000 s
  Finished solving standard eigenproblem
  | Time :     0.000 s
  Finished back-transformation of eigenvectors
  | Time :     0.000 s

  Obtaining occupation numbers and chemical potential using ELSI.
  | Chemical potential (Fermi level):    -5.54170668 eV
  Writing Kohn-Sham eigenvalues.

  State    Occupation    Eigenvalue [Ha]    Eigenvalue [eV]
      1       2.00000          -0.581596          -15.82603
      2       0.00000           0.137864            3.75148
      3       0.00000           0.930171           25.31125
      4       0.00000           0.930171           25.31125
      5       0.00000           0.930171           25.31125

  Highest occupied state (VBM) at    -15.82602665 eV (relative to internal zero)
  | Occupation number:      2.00000000
  | K-point:       1 at    0.000000    0.000000    0.000000 (in units of recip. lattice)

  Lowest unoccupied state (CBM) at     3.75148298 eV (relative to internal zero)
  | Occupation number:      0.00000000
  | K-point:       1 at    0.000000    0.000000    0.000000 (in units of recip. lattice)

  ESTIMATED overall HOMO-LUMO gap:     19.57750963 eV between HOMO at k-point 1 and LUMO at k-point 1
  The gap value is above 0.2 eV. Unless you are using a very sparse k-point grid,
  this system is most likely an insulator or a semiconductor.
  Calculating total energy contributions from superposition of free atom densities.

  Total energy components:
  | Sum of eigenvalues            :          -1.16319158 Ha         -31.65205330 eV
  | XC energy correction          :          -0.97319933 Ha         -26.48210115 eV
  | XC potential correction       :           1.27523021 Ha          34.70077947 eV
  | Free-atom electrostatic energy:          -1.99587684 Ha         -54.31057207 eV
  | Hartree energy correction     :           0.00000000 Ha           0.00000000 eV
  | Entropy correction            :           0.00000000 Ha           0.00000000 eV
  | ---------------------------
  | Total energy                  :          -2.85703754 Ha         -77.74394704 eV
  | Total energy, T -> 0          :          -2.85703754 Ha         -77.74394704 eV  <-- do not rely on this value for anything but (periodic) metals
  | Electronic free energy        :          -2.85703754 Ha         -77.74394704 eV

  Derived energy quantities:
  | Kinetic energy                :           2.74521356 Ha          74.70106179 eV
  | Electrostatic energy          :          -4.62905177 Ha        -125.96290768 eV
  | Energy correction for multipole
  | error in Hartree potential    :           0.00000000 Ha           0.00000000 eV
  | Sum of eigenvalues per atom                           :         -31.65205330 eV
  | Total energy (T->0) per atom                          :         -77.74394704 eV  <-- do not rely on this value for anything but (periodic) metals
  | Electronic free energy per atom                       :         -77.74394704 eV
  
  --------------------------------------------
  Constructing auxiliary basis (full product) ...
  
  Product basis:
  | charge radius: extent of product basis function
  | field radius: extent of its Coulomb potential
  | Species   l  charge radius    field radius  multipol momen
  |    He     1     3.924405 A      3.924405 A       -2.910036E-16 a.u.
  |    He     1     3.972676 A      3.972676 A        1.172885E-16 a.u.
  |    He     0     4.434721 A      4.489268 A       -1.084865E-19 a.u.
  |    He     0     4.544486 A      4.600383 A       -2.820908E-16 a.u.
  |    He     0     4.544486 A      4.600383 A        3.086287E-16 a.u.
  |    He     2     3.691711 A  1.011981E+04 A            0.556550 a.u.
  |    He     1     3.972676 A  1.719348E+06 A            0.840070 a.u.
  |    He     0     4.544486 A  3.421662E+12 A            0.514548 a.u.

  | Shrink_full_auxil_basis : there are        8  radial auxiliary wave functions
                            accepted and       0 rejected.
  | Shrink_full_auxil_basis : there are totally                2430 partial auxiliary wave functions.
  prodbas_tasks_distribution_pbc not up to date - distributing tasks.
 
  | Number of product basis functions per thread :  2430
  Parallel distribution of product basis not up to date - distributing tasks.
 
  | Number of product basis functions per thread :    18
  | Minimal requirement for computer memory :           0.000 Gbs
  -----------------------------------------
  --- Initializing Fock matrix calculations
  -----------------------------------------
  screening_threshold (crit_val) =  0.000000100000
  coul_mat_threshold =  0.000000000100
 Trying to make the workload more even by internally splitting atoms into fractions
 Atom:            1  Basis/atom:    5.00000000000000
 No atoms are split internally
  Number of super-cells in X Y Z:       7       7       7
  Number of atoms pairs total:          135
  Atom pair distribution:
  Cell:       -3       0       1 atom pairs:        1
  Cell:       -3       0       2 atom pairs:        1
  Cell:       -3       1       0 atom pairs:        1
  Cell:       -3       1       1 atom pairs:        1
  Cell:       -3       1       2 atom pairs:        1
  Cell:       -3       2       0 atom pairs:        1
  Cell:       -3       2       1 atom pairs:        1
  Cell:       -2      -1       0 atom pairs:        1
  Cell:       -2      -1       1 atom pairs:        1
  Cell:       -2      -1       2 atom pairs:        1
  Cell:       -2      -1       3 atom pairs:        1
  Cell:       -2       0      -1 atom pairs:        1
  Cell:       -2       0       0 atom pairs:        1
  Cell:       -2       0       1 atom pairs:        1
  Cell:       -2       0       2 atom pairs:        1
  Cell:       -2       0       3 atom pairs:        1
  Cell:       -2       1      -1 atom pairs:        1
  Cell:       -2       1       0 atom pairs:        1
  Cell:       -2       1       1 atom pairs:        1
  Cell:       -2       1       2 atom pairs:        1
  Cell:       -2       2      -1 atom pairs:        1
  Cell:       -2       2       0 atom pairs:        1
  Cell:       -2       2       1 atom pairs:        1
  Cell:       -2       3      -1 atom pairs:        1
  Cell:       -2       3       0 atom pairs:        1
  Cell:       -1      -2       0 atom pairs:        1
  Cell:       -1      -2       1 atom pairs:        1
  Cell:       -1      -2       2 atom pairs:        1
  Cell:       -1      -2       3 atom pairs:        1
  Cell:       -1      -1      -1 atom pairs:        1
  Cell:       -1      -1       0 atom pairs:        1
  Cell:       -1      -1       1 atom pairs:        1
  Cell:       -1      -1       2 atom pairs:        1
  Cell:       -1      -1       3 atom pairs:        1
  Cell:       -1       0      -2 atom pairs:        1
  Cell:       -1       0      -1 atom pairs:        1
  Cell:       -1       0       0 atom pairs:        1
  Cell:       -1       0       1 atom pairs:        1
  Cell:       -1       0       2 atom pairs:        1
  Cell:       -1       0       3 atom pairs:        1
  Cell:       -1       1      -2 atom pairs:        1
  Cell:       -1       1      -1 atom pairs:        1
  Cell:       -1       1       0 atom pairs:        1
  Cell:       -1       1       1 atom pairs:        1
  Cell:       -1       1       2 atom pairs:        1
  Cell:       -1       2      -2 atom pairs:        1
  Cell:       -1       2      -1 atom pairs:        1
  Cell:       -1       2       0 atom pairs:        1
  Cell:       -1       2       1 atom pairs:        1
  Cell:       -1       3      -2 atom pairs:        1
  Cell:       -1       3      -1 atom pairs:        1
  Cell:       -1       3       0 atom pairs:        1
  Cell:        0      -3       1 atom pairs:        1
  Cell:        0      -3       2 atom pairs:        1
  Cell:        0      -2      -1 atom pairs:        1
  Cell:        0      -2       0 atom pairs:        1
  Cell:        0      -2       1 atom pairs:        1
  Cell:        0      -2       2 atom pairs:        1
  Cell:        0      -2       3 atom pairs:        1
  Cell:        0      -1      -2 atom pairs:        1
  Cell:        0      -1      -1 atom pairs:        1
  Cell:        0      -1       0 atom pairs:        1
  Cell:        0      -1       1 atom pairs:        1
  Cell:        0      -1       2 atom pairs:        1
  Cell:        0      -1       3 atom pairs:        1
  Cell:        0       0      -2 atom pairs:        1
  Cell:        0       0      -1 atom pairs:        1
  Cell:        0       0       0 atom pairs:        1
  Cell:        0       0       1 atom pairs:        1
  Cell:        0       0       2 atom pairs:        1
  Cell:        0       1      -3 atom pairs:        1
  Cell:        0       1      -2 atom pairs:        1
  Cell:        0       1      -1 atom pairs:        1
  Cell:        0       1       0 atom pairs:        1
  Cell:        0       1       1 atom pairs:        1
  Cell:        0       1       2 atom pairs:        1
  Cell:        0       2      -3 atom pairs:        1
  Cell:        0       2      -2 atom pairs:        1
  Cell:        0       2      -1 atom pairs:        1
  Cell:        0       2       0 atom pairs:        1
  Cell:        0       2       1 atom pairs:        1
  Cell:        0       3      -2 atom pairs:        1
  Cell:        0       3      -1 atom pairs:        1
  Cell:        1      -3       0 atom pairs:        1
  Cell:        1      -3       1 atom pairs:        1
  Cell:        1      -3       2 atom pairs:        1
  Cell:        1      -2      -1 atom pairs:        1
  Cell:        1      -2       0 atom pairs:        1
  Cell:        1      -2       1 atom pairs:        1
  Cell:        1      -2       2 atom pairs:        1
  Cell:        1      -1      -2 atom pairs:        1
  Cell:        1      -1      -1 atom pairs:        1
  Cell:        1      -1       0 atom pairs:        1
  Cell:        1      -1       1 atom pairs:        1
  Cell:        1      -1       2 atom pairs:        1
  Cell:        1       0      -3 atom pairs:        1
  Cell:        1       0      -2 atom pairs:        1
  Cell:        1       0      -1 atom pairs:        1
  Cell:        1       0       0 atom pairs:        1
  Cell:        1       0       1 atom pairs:        1
  Cell:        1       0       2 atom pairs:        1
  Cell:        1       1      -3 atom pairs:        1
  Cell:        1       1      -2 atom pairs:        1
  Cell:        1       1      -1 atom pairs:        1
  Cell:        1       1       0 atom pairs:        1
  Cell:        1       1       1 atom pairs:        1
  Cell:        1       2      -3 atom pairs:        1
  Cell:        1       2      -2 atom pairs:        1
  Cell:        1       2      -1 atom pairs:        1
  Cell:        1       2       0 atom pairs:        1
  Cell:        2      -3       0 atom pairs:        1
  Cell:        2      -3       1 atom pairs:        1
  Cell:        2      -2      -1 atom pairs:        1
  Cell:        2      -2       0 atom pairs:        1
  Cell:        2      -2       1 atom pairs:        1
  Cell:        2      -1      -2 atom pairs:        1
  Cell:        2      -1      -1 atom pairs:        1
  Cell:        2      -1       0 atom pairs:        1
  Cell:        2      -1       1 atom pairs:        1
  Cell:        2       0      -3 atom pairs:        1
  Cell:        2       0      -2 atom pairs:        1
  Cell:        2       0      -1 atom pairs:        1
  Cell:        2       0       0 atom pairs:        1
  Cell:        2       0       1 atom pairs:        1
  Cell:        2       1      -3 atom pairs:        1
  Cell:        2       1      -2 atom pairs:        1
  Cell:        2       1      -1 atom pairs:        1
  Cell:        2       1       0 atom pairs:        1
  Cell:        3      -2      -1 atom pairs:        1
  Cell:        3      -2       0 atom pairs:        1
  Cell:        3      -1      -2 atom pairs:        1
  Cell:        3      -1      -1 atom pairs:        1
  Cell:        3      -1       0 atom pairs:        1
  Cell:        3       0      -2 atom pairs:        1
  Cell:        3       0      -1 atom pairs:        1
  Number of atoms pairs in BvK cells:            1
  Initializing work distribution for fock matrix calculation
  -----------------------------------------------------
  Dividing atoms among tasks for exact exchange energy:
  Atom:     1 Weight:   18.000

  Average weight per task:   18.000

  Number of "big" (above average) atoms  :     0
  Number of "small" (below average) atoms:     1

  All atoms have below average work per task
  No atom will be divided among tasks, atoms will be sorted to get best load distribution

  Atom division among tasks:
  Atom     1: (initial) task:     0, # of tasks:     1

  -----------------------------------------------------
  Task     0 : Coulomb matrix distribution changed.
  Overall Coulomb matrix distribution changed.
  Coulomb matrix subdivision:
  Task     0 works on full atoms (no Coulomb matrix division)
  Task      0: my_n_atoms:      1 my_atom_list:      1
  Task      0: my_n_atom_pairs:      1
  Memory needs for ovlp3fn and Coulomb matrix:
  For Coulomb matrix, this is the upper limit if no compression occurs
  ovlp3fn:        0.004 MB, Coulomb:        0.003 MB
Size of ovlp3fn for atom      25       1      18
  --- Initializing LVL triples
  | Storage requirements for basis-basbas products (processor-local):
  |   Species He: n_prodsfn:    28; storage:        0.88 MiB.

  --- Initializing Coulomb matrix calculations
  Preparing TB like auxiliary 2-center Coulomb matrix
  SBT integration errors (all should be 'small'):
  large logFT aliasing -> increase N/lnrange
  large SBT aliasing -> decrease lnk0 & increase lnk0+lnrange
  large SBT ringing -> decrease lnr0 & increase lnr0+lnrange
  |            El't  L: logFT-al.   small-k   large-k   small-r   large-r
  | Need to store    47 splines of    93 points taking         40 KiB.
  | Spline reduction from  4096 to    93 points by (cutting and)     1 x coarsening gives error:  0.00E+00
  Finished with initialize_tb_auxmat/lvl_triples, time:        0.073
  --- Calculating OVLP3FN
  Allocating        0.110 MB for coeff_3fn
  --- Done calculating OVLP3FN, time:        1.212
  Atomic logSBT for LVL-triples                :  max(cpu_time)    wall_clock(cpu1)
  | Multiplication with kernel                 :        0.095 s           0.105 s
  | Main matrix multiplication                 :        0.440 s           0.442 s
  | Analytic angular integration               :        0.024 s           0.021 s
  | Kernel construction                        :        0.079 s           0.074 s
  | Overall 2-center overlap time              :        0.701 s           0.695 s
  | 3-center preparation multiplications       :        0.012 s           0.012 s
  | 3-center preparation SBTs                  :        0.341 s           0.342 s
  | 3-center combinations                      :        0.713 s           0.717 s
  | Overal 3-center time                       :        1.067 s           1.071 s
  | LVL initialization                         :        0.029 s           0.029 s
  | Whole LVL-triples                          :        0.029 s           0.029 s

Compare n_pairs with n_super     135    3375
  --- Done getting norm of OVLP3FN, time:        0.000
  --- Calculating Coulomb matrices
  Atomic logSBT for 2-center Coulomb matrix    :  max(cpu_time)    wall_clock(cpu1)
  | TB initialization                          :        0.043 s           0.044 s
  | TB usage                                   :        0.008 s           0.011 s

  Preparing TB like auxiliary 2-center cutCoul matrix
  SBT integration errors (all should be 'small'):
  large logFT aliasing -> increase N/lnrange
  large SBT aliasing -> decrease lnk0 & increase lnk0+lnrange
  large SBT ringing -> decrease lnr0 & increase lnr0+lnrange
  |            El't  L: logFT-al.   small-k   large-k   small-r   large-r
  Initializing cut Coulomb operator.
  | Cut [erfc(-/+1)/2] from    1.5543 A to    1.8530 A within   15 sbt_grid points.

  | Need to store    47 splines of   118 points taking         48 KiB.
  | Spline reduction from  4096 to   118 points by (cutting and)     1 x coarsening gives error:  0.00E+00
  | Maximum value outside interaction range:  6.66E-16
  Time to calculate Coulomb Matrices   :        0.052
  Number of Coulomb matrix elements:
  | Task     0 total:            324, > threshold:             48, stored:            324
  --- Done init_fock_matrix_calculations
  Atomic logSBT for 2-center cutCoul matrix    :  max(cpu_time)    wall_clock(cpu1)
  | TB initialization                          :        0.046 s           0.046 s
  | TB usage                                   :        0.004 s           0.006 s

  Calculating non-local Hartree-Fock exchange by two-center RI (RI-LVL).
  screening_threshold (crit_val) =  0.000000100000
  Allocating        0.000 MB for dm_cols
  Allocating        0.001 MB for ovlp3fn_rcv
  Allocating        0.000 MB for fock_matrix
  Allocating        0.000 MB for fock_matrix_row
  Exact exchange progress report - outermost basis function loop i_basis_r1: 1 ..       5
  |        1         2         3         4         5  
  Full exact exchange energy:      25.459239366079 eV.
  Times            DM_x_o3fn   CM_x_o3fn    Products        Sync   Imbalance    Pre/Post       Other  Total calc
  | Times    0:        0.000       0.000       0.000       0.000       0.000       0.000       0.000       0.001
  | Times  sum:        0.000       0.000       0.000       0.000       0.000       0.000       0.000       0.001

  Decomposition of Other based on code block (only on MPI task 0):
  Times             Block #1    Block #2    Block #3    Block #4    Block #5    Block #6    Block #7    Block #8
  | Times    0:        0.000       0.000       0.000       0.000       0.000       0.000       0.000       0.000

  Times             Block #9   Block #10   Block #11   Block #12   Block #13   Block #14   Block #15   Block #16
  | Times    0:        0.000       0.000       0.000       0.000       0.000       0.000       0.000       0.000

  Times            Block Sum    Expected
  | Times    0:        0.000       0.000
  Initialize hartree_potential_storage
  Max. number of atoms included in rho_multipole:            1

  End scf initialization - timings             :  max(cpu_time)    wall_clock(cpu1)
  | Time for scf. initialization               :        1.869 s           1.874 s
  | Boundary condition initialization          :        0.204 s           0.205 s
  | Integration                                :        0.149 s           0.149 s
  | Solution of K.-S. eqns.                    :        0.001 s           0.000 s
  | Grid partitioning                          :        0.028 s           0.028 s
  | Preloading free-atom quantities on grid    :        0.001 s           0.002 s
  | Free-atom superposition energy             :        0.028 s           0.028 s
  | Total energy evaluation                    :        0.000 s           0.000 s
  | Product basis setup: Total time            :        1.345 s           1.348 s

  Partial memory accounting:
  | Current value for overall tracked memory usage:
  |   Minimum:        0.033 MB (on task 0)
  |   Maximum:        0.033 MB (on task 0)
  |   Average:        0.033 MB
  | Peak value for overall tracked memory usage:
  |   Minimum:        0.313 MB (on task 0 after allocating wave)
  |   Maximum:        0.313 MB (on task 0 after allocating wave)
  |   Average:        0.313 MB
  | Largest tracked array allocation so far:
  |   Minimum:        0.133 MB (all_coords on task 0)
  |   Maximum:        0.133 MB (all_coords on task 0)
  |   Average:        0.133 MB
  Note:  These values currently only include a subset of arrays which are explicitly tracked.
  The "true" memory usage will be greater.
------------------------------------------------------------

------------------------------------------------------------
          Begin self-consistency iteration #    1

  Date     :  20210506, Time     :  102808.269
------------------------------------------------------------
  Evaluating new KS density using the density matrix
  Evaluating density matrix
  Time summed over all CPUs for getting density from density matrix: real work        0.068 s, elapsed        0.068 s
  Integration grid: deviation in total charge (<rho> - N_e) =   1.376677E-14
  Pulay mixing of updated and previous charge densities.
  Renormalizing the density to the exact electron count on the 3D integration grid.
  | Formal number of electrons (from input files) :       2.0000000000
  | Integrated number of electrons on 3D grid     :       2.0000000000
  | Charge integration error                      :       0.0000000000
  | Normalization factor for density and gradient :       1.0000000000

  Evaluating partitioned Hartree potential by multipole expansion.
  | Original multipole sum: apparent total charge =   0.430877E-14
  | Sum of charges compensated after spline to logarithmic grids =  -0.227201E-04
  | Analytical far-field extrapolation by fixed multipoles:
  | Hartree multipole sum: apparent total charge =   0.000000E+00
  Summing up the Hartree potential.
  Time summed over all CPUs for potential: real work        0.766 s, elapsed        0.766 s
  | RMS charge density error from multipole expansion :   0.167845E-03
  | Average real-space part of the electrostatic potential :     -0.10575821 eV

  Integrating Hamiltonian matrix: batch-based integration.
  Time summed over all CPUs for integration: real work        0.080 s, elapsed        0.080 s
  Calculating non-local Hartree-Fock exchange by two-center RI (RI-LVL).
  screening_threshold (crit_val) =  0.000000100000
  Allocating        0.000 MB for dm_cols
  Allocating        0.001 MB for ovlp3fn_rcv
  Allocating        0.000 MB for fock_matrix
  Allocating        0.000 MB for fock_matrix_row
  Exact exchange progress report - outermost basis function loop i_basis_r1: 1 ..       5
  |        1         2         3         4         5  
  Full exact exchange energy:      25.459239366079 eV.
  Times            DM_x_o3fn   CM_x_o3fn    Products        Sync   Imbalance    Pre/Post       Other  Total calc
  | Times    0:        0.000       0.000       0.000       0.000       0.000       0.000       0.000       0.000
  | Times  sum:        0.000       0.000       0.000       0.000       0.000       0.000       0.000       0.000

  Decomposition of Other based on code block (only on MPI task 0):
  Times             Block #1    Block #2    Block #3    Block #4    Block #5    Block #6    Block #7    Block #8
  | Times    0:        0.000       0.000       0.000       0.000       0.000       0.000       0.000       0.000

  Times             Block #9   Block #10   Block #11   Block #12   Block #13   Block #14   Block #15   Block #16
  | Times    0:        0.000       0.000       0.000       0.000       0.000       0.000       0.000       0.000

  Times            Block Sum    Expected
  | Times    0:        0.000       0.000

  Updating Kohn-Sham eigenvalues and eigenvectors using ELSI and the (modified) LAPACK eigensolver.
  Starting LAPACK eigensolver
  Finished Cholesky decomposition
  | Time :     0.000 s
  Finished transformation to standard eigenproblem
  | Time :     0.000 s
  Finished solving standard eigenproblem
  | Time :     0.000 s
  Finished back-transformation of eigenvectors
  | Time :     0.000 s

  Obtaining occupation numbers and chemical potential using ELSI.
  | Chemical potential (Fermi level):     3.57392964 eV
  Writing Kohn-Sham eigenvalues.

  State    Occupation    Eigenvalue [Ha]    Eigenvalue [eV]
      1       2.00000          -0.935352          -25.45223
      2       0.00000           0.281664            7.66448
      3       0.00000           1.198031           32.60009
      4       0.00000           1.198031           32.60009
      5       0.00000           1.198031           32.60009

  Highest occupied state (VBM) at    -25.45222590 eV (relative to internal zero)
  | Occupation number:      2.00000000
  | K-point:       1 at    0.000000    0.000000    0.000000 (in units of recip. lattice)

  Lowest unoccupied state (CBM) at     7.66447835 eV (relative to internal zero)
  | Occupation number:      0.00000000
  | K-point:       1 at    0.000000    0.000000    0.000000 (in units of recip. lattice)

  ESTIMATED overall HOMO-LUMO gap:     33.11670425 eV between HOMO at k-point 1 and LUMO at k-point 1
  The gap value is above 0.2 eV. Unless you are using a very sparse k-point grid,
  this system is most likely an insulator or a semiconductor.

  Total energy components:
  | Sum of eigenvalues            :          -1.87070422 Ha         -50.90445180 eV
  | XC energy correction          :           0.95825122 Ha          26.07534242 eV
  | XC potential correction       :           0.00000000 Ha           0.00000000 eV
  | Free-atom electrostatic energy:          -1.99587684 Ha         -54.31057207 eV
  | Hartree energy correction     :           0.06106181 Ha           1.66157630 eV
  | Entropy correction            :           0.00000000 Ha           0.00000000 eV
  | ---------------------------
  | Total energy                  :          -2.84726803 Ha         -77.47810515 eV
  | Total energy, T -> 0          :          -2.84726803 Ha         -77.47810515 eV  <-- do not rely on this value for anything but (periodic) metals
  | Electronic free energy        :          -2.84726803 Ha         -77.47810515 eV

  Derived energy quantities:
  | Kinetic energy                :           2.65101960 Ha          72.13791363 eV
  | Electrostatic energy          :          -4.54003641 Ha        -123.54067637 eV
  | Energy correction for multipole
  | error in Hartree potential    :           0.00000236 Ha           0.00006427 eV
  | Sum of eigenvalues per atom                           :         -50.90445180 eV
  | Total energy (T->0) per atom                          :         -77.47810515 eV  <-- do not rely on this value for anything but (periodic) metals
  | Electronic free energy per atom                       :         -77.47810515 eV

  Self-consistency convergence accuracy:
  | Change of charge density      :  0.4684E-01
  | Change of sum of eigenvalues  : -0.1925E+02 eV
  | Change of total energy        :  0.2658E+00 eV

  End self-consistency iteration #     1       :  max(cpu_time)    wall_clock(cpu1)
  | Time for this iteration                    :        0.921 s           0.923 s
  | Charge density update                      :        0.069 s           0.069 s
  | Density mixing                             :        0.000 s           0.001 s
  | Hartree multipole update                   :        0.003 s           0.003 s
  | Hartree multipole summation                :        0.767 s           0.769 s
  | Integration                                :        0.080 s           0.080 s
  | Fock matrix evaluation                     :        0.001 s           0.000 s
  | Solution of K.-S. eqns.                    :        0.001 s           0.001 s
  | Total energy evaluation                    :        0.000 s           0.000 s

  Partial memory accounting:
  | Current value for overall tracked memory usage:
  |   Minimum:        0.033 MB (on task 0)
  |   Maximum:        0.033 MB (on task 0)
  |   Average:        0.033 MB
  | Peak value for overall tracked memory usage:
  |   Minimum:        0.319 MB (on task 0 after allocating wave)
  |   Maximum:        0.319 MB (on task 0 after allocating wave)
  |   Average:        0.319 MB
  | Largest tracked array allocation so far:
  |   Minimum:        0.133 MB (all_coords on task 0)
  |   Maximum:        0.133 MB (all_coords on task 0)
  |   Average:        0.133 MB
  Note:  These values currently only include a subset of arrays which are explicitly tracked.
  The "true" memory usage will be greater.
------------------------------------------------------------

------------------------------------------------------------
          Begin self-consistency iteration #    2

  Date     :  20210506, Time     :  102809.193
------------------------------------------------------------
  Evaluating new KS density using the density matrix
  Evaluating density matrix
  Time summed over all CPUs for getting density from density matrix: real work        0.068 s, elapsed        0.068 s
  Integration grid: deviation in total charge (<rho> - N_e) =  -4.662937E-15
  Pulay mixing of updated and previous charge densities.
  Renormalizing the density to the exact electron count on the 3D integration grid.
  | Formal number of electrons (from input files) :       2.0000000000
  | Integrated number of electrons on 3D grid     :       2.0000000000
  | Charge integration error                      :      -0.0000000000
  | Normalization factor for density and gradient :       1.0000000000

  Evaluating partitioned Hartree potential by multipole expansion.
  | Original multipole sum: apparent total charge =  -0.244054E-14
  | Sum of charges compensated after spline to logarithmic grids =  -0.200460E-04
  | Analytical far-field extrapolation by fixed multipoles:
  | Hartree multipole sum: apparent total charge =   0.000000E+00
  Summing up the Hartree potential.
  Time summed over all CPUs for potential: real work        0.748 s, elapsed        0.748 s
  | RMS charge density error from multipole expansion :   0.166447E-03
  | Average real-space part of the electrostatic potential :     -0.09140118 eV

  Integrating Hamiltonian matrix: batch-based integration.
  Time summed over all CPUs for integration: real work        0.080 s, elapsed        0.080 s
  Calculating non-local Hartree-Fock exchange by two-center RI (RI-LVL).
  screening_threshold (crit_val) =  0.000000100000
  Allocating        0.000 MB for dm_cols
  Allocating        0.001 MB for ovlp3fn_rcv
  Allocating        0.000 MB for fock_matrix
  Allocating        0.000 MB for fock_matrix_row
  Exact exchange progress report - outermost basis function loop i_basis_r1: 1 ..       5
  |        1         2         3         4         5  
  Full exact exchange energy:      26.756172565285 eV.
  Times            DM_x_o3fn   CM_x_o3fn    Products        Sync   Imbalance    Pre/Post       Other  Total calc
  | Times    0:        0.000       0.000       0.000       0.000       0.000       0.000       0.000       0.000
  | Times  sum:        0.000       0.000       0.000       0.000       0.000       0.000       0.000       0.000

  Decomposition of Other based on code block (only on MPI task 0):
  Times             Block #1    Block #2    Block #3    Block #4    Block #5    Block #6    Block #7    Block #8
  | Times    0:        0.000       0.000       0.000       0.000       0.000       0.000       0.000       0.000

  Times             Block #9   Block #10   Block #11   Block #12   Block #13   Block #14   Block #15   Block #16
  | Times    0:        0.000       0.000       0.000       0.000       0.000       0.000       0.000       0.000

  Times            Block Sum    Expected
  | Times    0:        0.000       0.000

  Updating Kohn-Sham eigenvalues and eigenvectors using ELSI and the (modified) LAPACK eigensolver.
  Starting LAPACK eigensolver
  Finished Cholesky decomposition
  | Time :     0.000 s
  Finished transformation to standard eigenproblem
  | Time :     0.000 s
  Finished solving standard eigenproblem
  | Time :     0.000 s
  Finished back-transformation of eigenvectors
  | Time :     0.000 s

  Obtaining occupation numbers and chemical potential using ELSI.
  | Chemical potential (Fermi level):     3.61174129 eV
  Highest occupied state (VBM) at    -25.47421396 eV (relative to internal zero)
  | Occupation number:      2.00000000
  | K-point:       1 at    0.000000    0.000000    0.000000 (in units of recip. lattice)

  Lowest unoccupied state (CBM) at     7.67520807 eV (relative to internal zero)
  | Occupation number:      0.00000000
  | K-point:       1 at    0.000000    0.000000    0.000000 (in units of recip. lattice)

  ESTIMATED overall HOMO-LUMO gap:     33.14942203 eV between HOMO at k-point 1 and LUMO at k-point 1
  The gap value is above 0.2 eV. Unless you are using a very sparse k-point grid,
  this system is most likely an insulator or a semiconductor.

  Checking to see if s.c.f. parameters should be adjusted.

  Total energy components:
  | Sum of eigenvalues            :          -1.87232031 Ha         -50.94842793 eV
  | XC energy correction          :           0.96951616 Ha          26.38187699 eV
  | XC potential correction       :           0.00000000 Ha           0.00000000 eV
  | Free-atom electrostatic energy:          -1.99587684 Ha         -54.31057207 eV
  | Hartree energy correction     :           0.04502761 Ha           1.22526373 eV
  | Entropy correction            :           0.00000000 Ha           0.00000000 eV
  | ---------------------------
  | Total energy                  :          -2.85365338 Ha         -77.65185928 eV
  | Total energy, T -> 0          :          -2.85365338 Ha         -77.65185928 eV  <-- do not rely on this value for anything but (periodic) metals
  | Electronic free energy        :          -2.85365338 Ha         -77.65185928 eV

  Derived energy quantities:
  | Kinetic energy                :           2.69237251 Ha          73.26318357 eV
  | Electrostatic energy          :          -4.57650973 Ha        -124.53316586 eV
  | Energy correction for multipole
  | error in Hartree potential    :           0.00000212 Ha           0.00005760 eV
  | Sum of eigenvalues per atom                           :         -50.94842793 eV
  | Total energy (T->0) per atom                          :         -77.65185928 eV  <-- do not rely on this value for anything but (periodic) metals
  | Electronic free energy per atom                       :         -77.65185928 eV

  Self-consistency convergence accuracy:
  | Change of charge density      :  0.3164E-01
  | Change of sum of eigenvalues  : -0.4398E-01 eV
  | Change of total energy        : -0.1738E+00 eV

  End self-consistency iteration #     2       :  max(cpu_time)    wall_clock(cpu1)
  | Time for this iteration                    :        0.901 s           0.903 s
  | Charge density update                      :        0.068 s           0.068 s
  | Density mixing                             :        0.001 s           0.001 s
  | Hartree multipole update                   :        0.003 s           0.003 s
  | Hartree multipole summation                :        0.748 s           0.750 s
  | Integration                                :        0.080 s           0.080 s
  | Fock matrix evaluation                     :        0.001 s           0.000 s
  | Solution of K.-S. eqns.                    :        0.000 s           0.001 s
  | Total energy evaluation                    :        0.000 s           0.000 s

  Partial memory accounting:
  | Current value for overall tracked memory usage:
  |   Minimum:        0.034 MB (on task 0)
  |   Maximum:        0.034 MB (on task 0)
  |   Average:        0.034 MB
  | Peak value for overall tracked memory usage:
  |   Minimum:        0.319 MB (on task 0 after allocating wave)
  |   Maximum:        0.319 MB (on task 0 after allocating wave)
  |   Average:        0.319 MB
  | Largest tracked array allocation so far:
  |   Minimum:        0.133 MB (all_coords on task 0)
  |   Maximum:        0.133 MB (all_coords on task 0)
  |   Average:        0.133 MB
  Note:  These values currently only include a subset of arrays which are explicitly tracked.
  The "true" memory usage will be greater.
------------------------------------------------------------

------------------------------------------------------------
          Begin self-consistency iteration #    3

  Date     :  20210506, Time     :  102810.096
------------------------------------------------------------
  Evaluating new KS density using the density matrix
  Evaluating density matrix
  Time summed over all CPUs for getting density from density matrix: real work        0.068 s, elapsed        0.068 s
  Integration grid: deviation in total charge (<rho> - N_e) =   8.881784E-16
  Pulay mixing of updated and previous charge densities.
  Renormalizing the density to the exact electron count on the 3D integration grid.
  | Formal number of electrons (from input files) :       2.0000000000
  | Integrated number of electrons on 3D grid     :       2.0000000000
  | Charge integration error                      :      -0.0000000000
  | Normalization factor for density and gradient :       1.0000000000

  Evaluating partitioned Hartree potential by multipole expansion.
  | Original multipole sum: apparent total charge =   0.399585E-14
  | Sum of charges compensated after spline to logarithmic grids =  -0.106273E-04
  | Analytical far-field extrapolation by fixed multipoles:
  | Hartree multipole sum: apparent total charge =   0.000000E+00
  Summing up the Hartree potential.
  Time summed over all CPUs for potential: real work        0.584 s, elapsed        0.584 s
  | RMS charge density error from multipole expansion :   0.156199E-03
  | Average real-space part of the electrostatic potential :     -0.04217697 eV

  Integrating Hamiltonian matrix: batch-based integration.
  Time summed over all CPUs for integration: real work        0.080 s, elapsed        0.080 s
  Calculating non-local Hartree-Fock exchange by two-center RI (RI-LVL).
  screening_threshold (crit_val) =  0.000000100000
  Allocating        0.000 MB for dm_cols
  Allocating        0.001 MB for ovlp3fn_rcv
  Allocating        0.000 MB for fock_matrix
  Allocating        0.000 MB for fock_matrix_row
  Exact exchange progress report - outermost basis function loop i_basis_r1: 1 ..       5
  |        1         2         3         4         5  
  Full exact exchange energy:      26.889180638602 eV.
  Times            DM_x_o3fn   CM_x_o3fn    Products        Sync   Imbalance    Pre/Post       Other  Total calc
  | Times    0:        0.000       0.000       0.000       0.000       0.000       0.000       0.000       0.001
  | Times  sum:        0.000       0.000       0.000       0.000       0.000       0.000       0.000       0.001

  Decomposition of Other based on code block (only on MPI task 0):
  Times             Block #1    Block #2    Block #3    Block #4    Block #5    Block #6    Block #7    Block #8
  | Times    0:        0.000       0.000       0.000       0.000       0.000       0.000       0.000       0.000

  Times             Block #9   Block #10   Block #11   Block #12   Block #13   Block #14   Block #15   Block #16
  | Times    0:        0.000       0.000       0.000       0.000       0.000       0.000       0.000       0.000

  Times            Block Sum    Expected
  | Times    0:        0.000       0.000

  Updating Kohn-Sham eigenvalues and eigenvectors using ELSI and the (modified) LAPACK eigensolver.
  Starting LAPACK eigensolver
  Finished Cholesky decomposition
  | Time :     0.000 s
  Finished transformation to standard eigenproblem
  | Time :     0.000 s
  Finished solving standard eigenproblem
  | Time :     0.000 s
  Finished back-transformation of eigenvectors
  | Time :     0.000 s

  Obtaining occupation numbers and chemical potential using ELSI.
  | Chemical potential (Fermi level):     3.79482334 eV
  Highest occupied state (VBM) at    -25.40911156 eV (relative to internal zero)
  | Occupation number:      2.00000000
  | K-point:       1 at    0.000000    0.000000    0.000000 (in units of recip. lattice)

  Lowest unoccupied state (CBM) at     7.73513656 eV (relative to internal zero)
  | Occupation number:      0.00000000
  | K-point:       1 at    0.000000    0.000000    0.000000 (in units of recip. lattice)

  ESTIMATED overall HOMO-LUMO gap:     33.14424811 eV between HOMO at k-point 1 and LUMO at k-point 1
  The gap value is above 0.2 eV. Unless you are using a very sparse k-point grid,
  this system is most likely an insulator or a semiconductor.

  Total energy components:
  | Sum of eigenvalues            :          -1.86753537 Ha         -50.81822311 eV
  | XC energy correction          :           0.99651625 Ha          27.11658680 eV
  | XC potential correction       :           0.00000000 Ha           0.00000000 eV
  | Free-atom electrostatic energy:          -1.99587684 Ha         -54.31057207 eV
  | Hartree energy correction     :          -0.00354409 Ha          -0.09643952 eV
  | Entropy correction            :           0.00000000 Ha           0.00000000 eV
  | ---------------------------
  | Total energy                  :          -2.87044005 Ha         -78.10864790 eV
  | Total energy, T -> 0          :          -2.87044005 Ha         -78.10864790 eV  <-- do not rely on this value for anything but (periodic) metals
  | Electronic free energy        :          -2.87044005 Ha         -78.10864790 eV

  Derived energy quantities:
  | Kinetic energy                :           2.80398329 Ha          76.30026733 eV
  | Electrostatic energy          :          -4.67790709 Ha        -127.29232843 eV
  | Energy correction for multipole
  | error in Hartree potential    :           0.00000117 Ha           0.00003193 eV
  | Sum of eigenvalues per atom                           :         -50.81822311 eV
  | Total energy (T->0) per atom                          :         -78.10864790 eV  <-- do not rely on this value for anything but (periodic) metals
  | Electronic free energy per atom                       :         -78.10864790 eV

  Self-consistency convergence accuracy:
  | Change of charge density      :  0.2536E-01
  | Change of sum of eigenvalues  :  0.1302E+00 eV
  | Change of total energy        : -0.4568E+00 eV

  End self-consistency iteration #     3       :  max(cpu_time)    wall_clock(cpu1)
  | Time for this iteration                    :        0.738 s           0.740 s
  | Charge density update                      :        0.068 s           0.069 s
  | Density mixing                             :        0.001 s           0.001 s
  | Hartree multipole update                   :        0.003 s           0.003 s
  | Hartree multipole summation                :        0.584 s           0.586 s
  | Integration                                :        0.080 s           0.080 s
  | Fock matrix evaluation                     :        0.001 s           0.001 s
  | Solution of K.-S. eqns.                    :        0.000 s           0.000 s
  | Total energy evaluation                    :        0.000 s           0.000 s

  Partial memory accounting:
  | Current value for overall tracked memory usage:
  |   Minimum:        0.034 MB (on task 0)
  |   Maximum:        0.034 MB (on task 0)
  |   Average:        0.034 MB
  | Peak value for overall tracked memory usage:
  |   Minimum:        0.319 MB (on task 0 after allocating wave)
  |   Maximum:        0.319 MB (on task 0 after allocating wave)
  |   Average:        0.319 MB
  | Largest tracked array allocation so far:
  |   Minimum:        0.133 MB (all_coords on task 0)
  |   Maximum:        0.133 MB (all_coords on task 0)
  |   Average:        0.133 MB
  Note:  These values currently only include a subset of arrays which are explicitly tracked.
  The "true" memory usage will be greater.
------------------------------------------------------------

------------------------------------------------------------
          Begin self-consistency iteration #    4

  Date     :  20210506, Time     :  102810.836
------------------------------------------------------------
  Evaluating new KS density using the density matrix
  Evaluating density matrix
  Time summed over all CPUs for getting density from density matrix: real work        0.068 s, elapsed        0.068 s
  Integration grid: deviation in total charge (<rho> - N_e) =   9.325873E-15
  Pulay mixing of updated and previous charge densities.
  Renormalizing the density to the exact electron count on the 3D integration grid.
  | Formal number of electrons (from input files) :       2.0000000000
  | Integrated number of electrons on 3D grid     :       2.0000000000
  | Charge integration error                      :       0.0000000000
  | Normalization factor for density and gradient :       1.0000000000

  Evaluating partitioned Hartree potential by multipole expansion.
  | Original multipole sum: apparent total charge =   0.937004E-14
  | Sum of charges compensated after spline to logarithmic grids =  -0.813778E-05
  | Analytical far-field extrapolation by fixed multipoles:
  | Hartree multipole sum: apparent total charge =   0.000000E+00
  Summing up the Hartree potential.
  Time summed over all CPUs for potential: real work        0.656 s, elapsed        0.656 s
  | RMS charge density error from multipole expansion :   0.148491E-03
  | Average real-space part of the electrostatic potential :     -0.02933121 eV

  Integrating Hamiltonian matrix: batch-based integration.
  Time summed over all CPUs for integration: real work        0.080 s, elapsed        0.080 s
  Calculating non-local Hartree-Fock exchange by two-center RI (RI-LVL).
  screening_threshold (crit_val) =  0.000000100000
  Allocating        0.000 MB for dm_cols
  Allocating        0.001 MB for ovlp3fn_rcv
  Allocating        0.000 MB for fock_matrix
  Allocating        0.000 MB for fock_matrix_row
  Exact exchange progress report - outermost basis function loop i_basis_r1: 1 ..       5
  |        1         2         3         4         5  
  Full exact exchange energy:      27.160765595792 eV.
  Times            DM_x_o3fn   CM_x_o3fn    Products        Sync   Imbalance    Pre/Post       Other  Total calc
  | Times    0:        0.000       0.000       0.000       0.000       0.000       0.000       0.000       0.000
  | Times  sum:        0.000       0.000       0.000       0.000       0.000       0.000       0.000       0.000

  Decomposition of Other based on code block (only on MPI task 0):
  Times             Block #1    Block #2    Block #3    Block #4    Block #5    Block #6    Block #7    Block #8
  | Times    0:        0.000       0.000       0.000       0.000       0.000       0.000       0.000       0.000

  Times             Block #9   Block #10   Block #11   Block #12   Block #13   Block #14   Block #15   Block #16
  | Times    0:        0.000       0.000       0.000       0.000       0.000       0.000       0.000       0.000

  Times            Block Sum    Expected
  | Times    0:        0.000       0.000

  Updating Kohn-Sham eigenvalues and eigenvectors using ELSI and the (modified) LAPACK eigensolver.
  Starting LAPACK eigensolver
  Finished Cholesky decomposition
  | Time :     0.000 s
  Finished transformation to standard eigenproblem
  | Time :     0.000 s
  Finished solving standard eigenproblem
  | Time :     0.001 s
  Finished back-transformation of eigenvectors
  | Time :     0.000 s

  Obtaining occupation numbers and chemical potential using ELSI.
  | Chemical potential (Fermi level):     3.86473044 eV
  Highest occupied state (VBM) at    -25.33731291 eV (relative to internal zero)
  | Occupation number:      2.00000000
  | K-point:       1 at    0.000000    0.000000    0.000000 (in units of recip. lattice)

  Lowest unoccupied state (CBM) at     7.75578653 eV (relative to internal zero)
  | Occupation number:      0.00000000
  | K-point:       1 at    0.000000    0.000000    0.000000 (in units of recip. lattice)

  ESTIMATED overall HOMO-LUMO gap:     33.09309944 eV between HOMO at k-point 1 and LUMO at k-point 1
  The gap value is above 0.2 eV. Unless you are using a very sparse k-point grid,
  this system is most likely an insulator or a semiconductor.

  Total energy components:
  | Sum of eigenvalues            :          -1.86225827 Ha         -50.67462582 eV
  | XC energy correction          :           0.99922252 Ha          27.19022816 eV
  | XC potential correction       :           0.00000000 Ha           0.00000000 eV
  | Free-atom electrostatic energy:          -1.99587684 Ha         -54.31057207 eV
  | Hartree energy correction     :          -0.01392753 Ha          -0.37898741 eV
  | Entropy correction            :           0.00000000 Ha           0.00000000 eV
  | ---------------------------
  | Total energy                  :          -2.87284012 Ha         -78.17395713 eV
  | Total energy, T -> 0          :          -2.87284012 Ha         -78.17395713 eV  <-- do not rely on this value for anything but (periodic) metals
  | Electronic free energy        :          -2.87284012 Ha         -78.17395713 eV

  Derived energy quantities:
  | Kinetic energy                :           2.82318937 Ha          76.82289152 eV
  | Electrostatic energy          :          -4.69680697 Ha        -127.80662049 eV
  | Energy correction for multipole
  | error in Hartree potential    :           0.00000090 Ha           0.00002453 eV
  | Sum of eigenvalues per atom                           :         -50.67462582 eV
  | Total energy (T->0) per atom                          :         -78.17395713 eV  <-- do not rely on this value for anything but (periodic) metals
  | Electronic free energy per atom                       :         -78.17395713 eV

  Self-consistency convergence accuracy:
  | Change of charge density      :  0.4019E-02
  | Change of sum of eigenvalues  :  0.1436E+00 eV
  | Change of total energy        : -0.6531E-01 eV

  End self-consistency iteration #     4       :  max(cpu_time)    wall_clock(cpu1)
  | Time for this iteration                    :        0.810 s           0.813 s
  | Charge density update                      :        0.068 s           0.069 s
  | Density mixing                             :        0.001 s           0.001 s
  | Hartree multipole update                   :        0.004 s           0.004 s
  | Hartree multipole summation                :        0.656 s           0.658 s
  | Integration                                :        0.080 s           0.080 s
  | Fock matrix evaluation                     :        0.001 s           0.000 s
  | Solution of K.-S. eqns.                    :        0.000 s           0.001 s
  | Total energy evaluation                    :        0.000 s           0.000 s

  Partial memory accounting:
  | Current value for overall tracked memory usage:
  |   Minimum:        0.034 MB (on task 0)
  |   Maximum:        0.034 MB (on task 0)
  |   Average:        0.034 MB
  | Peak value for overall tracked memory usage:
  |   Minimum:        0.319 MB (on task 0 after allocating wave)
  |   Maximum:        0.319 MB (on task 0 after allocating wave)
  |   Average:        0.319 MB
  | Largest tracked array allocation so far:
  |   Minimum:        0.133 MB (all_coords on task 0)
  |   Maximum:        0.133 MB (all_coords on task 0)
  |   Average:        0.133 MB
  Note:  These values currently only include a subset of arrays which are explicitly tracked.
  The "true" memory usage will be greater.
------------------------------------------------------------

------------------------------------------------------------
          Begin self-consistency iteration #    5

  Date     :  20210506, Time     :  102811.649
------------------------------------------------------------
  Evaluating new KS density using the density matrix
  Evaluating density matrix
  Time summed over all CPUs for getting density from density matrix: real work        0.068 s, elapsed        0.068 s
  Integration grid: deviation in total charge (<rho> - N_e) =  -1.687539E-14
  Pulay mixing of updated and previous charge densities.
  * Rank deficiency in solve_pulay; rank =     3; saved_iter =     4
  Renormalizing the density to the exact electron count on the 3D integration grid.
  | Formal number of electrons (from input files) :       2.0000000000
  | Integrated number of electrons on 3D grid     :       2.0000000000
  | Charge integration error                      :      -0.0000000000
  | Normalization factor for density and gradient :       1.0000000000

  Evaluating partitioned Hartree potential by multipole expansion.
  | Original multipole sum: apparent total charge =  -0.591600E-14
  | Sum of charges compensated after spline to logarithmic grids =  -0.882984E-05
  | Analytical far-field extrapolation by fixed multipoles:
  | Hartree multipole sum: apparent total charge =   0.000000E+00
  Summing up the Hartree potential.
  Time summed over all CPUs for potential: real work        0.643 s, elapsed        0.643 s
  | RMS charge density error from multipole expansion :   0.150344E-03
  | Average real-space part of the electrostatic potential :     -0.03288481 eV

  Integrating Hamiltonian matrix: batch-based integration.
  Time summed over all CPUs for integration: real work        0.080 s, elapsed        0.080 s
  Calculating non-local Hartree-Fock exchange by two-center RI (RI-LVL).
  screening_threshold (crit_val) =  0.000000100000
  Allocating        0.000 MB for dm_cols
  Allocating        0.001 MB for ovlp3fn_rcv
  Allocating        0.000 MB for fock_matrix
  Allocating        0.000 MB for fock_matrix_row
  Exact exchange progress report - outermost basis function loop i_basis_r1: 1 ..       5
  |        1         2         3         4         5  
  Full exact exchange energy:      27.168796997908 eV.
  Times            DM_x_o3fn   CM_x_o3fn    Products        Sync   Imbalance    Pre/Post       Other  Total calc
  | Times    0:        0.000       0.000       0.000       0.000       0.000       0.000       0.000       0.000
  | Times  sum:        0.000       0.000       0.000       0.000       0.000       0.000       0.000       0.000

[...]
  Found symmetry 0.00 0.00 1.00 -1.00 0.00 0.00  0.00-1.00 0.00  around 0.00 0.00 0.00
  Found symmetry 0.00 0.00-1.00 -1.00 0.00 0.00  0.00-1.00 0.00  around 0.00 0.00 0.00
  Found symmetry 0.00 1.00 0.00  0.00 0.00 1.00  1.00 0.00 0.00  around 0.00 0.00 0.00
  Found symmetry 0.00 1.00 0.00  0.00 0.00-1.00  1.00 0.00 0.00  around 0.00 0.00 0.00
  Found symmetry 0.00-1.00 0.00  0.00 0.00 1.00  1.00 0.00 0.00  around 0.00 0.00 0.00
  Found symmetry 0.00-1.00 0.00  0.00 0.00-1.00  1.00 0.00 0.00  around 0.00 0.00 0.00
  Found symmetry 0.00 1.00 0.00  0.00 0.00 1.00 -1.00 0.00 0.00  around 0.00 0.00 0.00
  Found symmetry 0.00 1.00 0.00  0.00 0.00-1.00 -1.00 0.00 0.00  around 0.00 0.00 0.00
  Found symmetry 0.00-1.00 0.00  0.00 0.00 1.00 -1.00 0.00 0.00  around 0.00 0.00 0.00
  Found symmetry 0.00-1.00 0.00  0.00 0.00-1.00 -1.00 0.00 0.00  around 0.00 0.00 0.00
  Found symmetry 0.00 1.00 0.00  1.00 0.00 0.00  0.00 0.00 1.00  around 0.00 0.00 0.00
  Found symmetry 0.00 1.00 0.00  1.00 0.00 0.00  0.00 0.00-1.00  around 0.00 0.00 0.00
  Found symmetry 0.00-1.00 0.00  1.00 0.00 0.00  0.00 0.00 1.00  around 0.00 0.00 0.00
  Found symmetry 0.00-1.00 0.00  1.00 0.00 0.00  0.00 0.00-1.00  around 0.00 0.00 0.00
  Found symmetry 0.00 1.00 0.00 -1.00 0.00 0.00  0.00 0.00 1.00  around 0.00 0.00 0.00
  Found symmetry 0.00 1.00 0.00 -1.00 0.00 0.00  0.00 0.00-1.00  around 0.00 0.00 0.00
  Found symmetry 0.00-1.00 0.00 -1.00 0.00 0.00  0.00 0.00 1.00  around 0.00 0.00 0.00
  Found symmetry 0.00-1.00 0.00 -1.00 0.00 0.00  0.00 0.00-1.00  around 0.00 0.00 0.00
  Found symmetry 1.00 0.00 0.00  0.00 0.00 1.00  0.00 1.00 0.00  around 0.00 0.00 0.00
  Found symmetry 1.00 0.00 0.00  0.00 0.00-1.00  0.00 1.00 0.00  around 0.00 0.00 0.00
  Found symmetry 1.00 0.00 0.00  0.00 0.00 1.00  0.00-1.00 0.00  around 0.00 0.00 0.00
  Found symmetry 1.00 0.00 0.00  0.00 0.00-1.00  0.00-1.00 0.00  around 0.00 0.00 0.00
  Found symmetry-1.00 0.00 0.00  0.00 0.00 1.00  0.00 1.00 0.00  around 0.00 0.00 0.00
  Found symmetry-1.00 0.00 0.00  0.00 0.00-1.00  0.00 1.00 0.00  around 0.00 0.00 0.00
  Found symmetry-1.00 0.00 0.00  0.00 0.00 1.00  0.00-1.00 0.00  around 0.00 0.00 0.00
  Found symmetry-1.00 0.00 0.00  0.00 0.00-1.00  0.00-1.00 0.00  around 0.00 0.00 0.00
  Found symmetry 0.00 0.00 1.00  0.00 1.00 0.00  1.00 0.00 0.00  around 0.00 0.00 0.00
  Found symmetry 0.00 0.00-1.00  0.00 1.00 0.00  1.00 0.00 0.00  around 0.00 0.00 0.00
  Found symmetry 0.00 0.00 1.00  0.00-1.00 0.00  1.00 0.00 0.00  around 0.00 0.00 0.00
  Found symmetry 0.00 0.00-1.00  0.00-1.00 0.00  1.00 0.00 0.00  around 0.00 0.00 0.00
  Found symmetry 0.00 0.00 1.00  0.00 1.00 0.00 -1.00 0.00 0.00  around 0.00 0.00 0.00
  Found symmetry 0.00 0.00-1.00  0.00 1.00 0.00 -1.00 0.00 0.00  around 0.00 0.00 0.00
  Found symmetry 0.00 0.00 1.00  0.00-1.00 0.00 -1.00 0.00 0.00  around 0.00 0.00 0.00
  Found symmetry 0.00 0.00-1.00  0.00-1.00 0.00 -1.00 0.00 0.00  around 0.00 0.00 0.00
  Found 48 symmetry operations for current configuration
  Irreducible k points #            1
 
 --------------------------------------------
  Constructing auxiliary basis (full product) ...
 
  Product basis:
  | charge radius: extent of product basis function
  | field radius: extent of its Coulomb potential
  | Species   l  charge radius    field radius  multipol momen
  |    He     1     3.924405 A      3.924405 A       -2.910036E-16 a.u.
  |    He     1     3.972676 A      3.972676 A        1.172885E-16 a.u.
  |    He     0     4.434721 A      4.489268 A       -1.084865E-19 a.u.
  |    He     0     4.544486 A      4.600383 A       -2.820908E-16 a.u.
  |    He     0     4.544486 A      4.600383 A        3.086287E-16 a.u.
  |    He     2     3.691711 A  1.011981E+04 A            0.556550 a.u.
  |    He     1     3.972676 A  1.719348E+06 A            0.840070 a.u.
  |    He     0     4.544486 A  3.421662E+12 A            0.514548 a.u.

  | Shrink_full_auxil_basis : there are        8  radial auxiliary wave functions
                            accepted and       0 rejected.
  | Shrink_full_auxil_basis : there are totally                  18 partial auxiliary wave functions.
 
  | Number of product basis functions per thread :    18
  | Minimal requirement for computer memory :           0.000 Gbs
 
  Basis pair condensation :        15  -->         15
 
  ------------------------------------------------------------------
 
  Post-SCF correlation calculation starts ...
 
 communicator split irkq, row, col:            1           1           1
 reso: bb,b,st          18           5           5
 reso: mnbb,nc,nf           5         136          20
  | Storage requirements for basis-basbas products (processor-local):
  |   Species He: n_prodsfn:    28; storage:        0.88 MiB.

 
  Finished with initialization of triples (Coulomb norm) ...
  Preparing TB like auxiliary 2-center Coulomb matrix
  SBT integration errors (all should be 'small'):
  large logFT aliasing -> increase N/lnrange
  large SBT aliasing -> decrease lnk0 & increase lnk0+lnrange
  large SBT ringing -> decrease lnr0 & increase lnr0+lnrange
  |            El't  L: logFT-al.   small-k   large-k   small-r   large-r
  | Need to store    47 splines of    93 points taking         40 KiB.
  | Spline reduction from  4096 to    93 points by (cutting and)     1 x coarsening gives error:  0.00E+00
 
  Finished with initialization of Coulomb interaction matrix ...
 
  Computing the triple LVL expansion coefficents in real space ...
 
  Finished with initialization of the periodic LVL triple coefficients ...
 
  Atomic logSBT for LVL-triples                :  max(cpu_time)    wall_clock(cpu1)
  | Multiplication with kernel                 :        0.189 s           0.188 s
  | Main matrix multiplication                 :        0.882 s           0.892 s
  | Analytic angular integration               :        0.048 s           0.041 s
  | Kernel construction                        :        0.157 s           0.151 s
  | Overall 2-center overlap time              :        1.398 s           1.385 s
  | 3-center preparation multiplications       :        0.198 s           0.198 s
  | 3-center preparation SBTs                  :        5.216 s           5.230 s
  | 3-center combinations                      :        1.427 s           1.431 s
  | Overal 3-center time                       :        6.853 s           6.873 s
  | LVL initialization                         :        0.008 s           0.008 s
  | Whole LVL-triples                          :        0.008 s           0.008 s

  count_new          90           5
 
  Finishing computation of the periodic LVL triple coefficients ...
 
  Atomic logSBT for 2-center Coulomb matrix    :  max(cpu_time)    wall_clock(cpu1)
  | TB initialization                          :        0.043 s           0.043 s
  | TB usage                                   :        0.017 s           0.009 s

  Preparing TB like auxiliary 2-center cutCoul matrix
  SBT integration errors (all should be 'small'):
  large logFT aliasing -> increase N/lnrange
  large SBT aliasing -> decrease lnk0 & increase lnk0+lnrange
  large SBT ringing -> decrease lnr0 & increase lnr0+lnrange
  |            El't  L: logFT-al.   small-k   large-k   small-r   large-r
  Initializing cut Coulomb operator.
  | Cut [erfc(-/+1)/2] from    1.5543 A to    1.8530 A within   15 sbt_grid points.

  | Need to store    47 splines of   118 points taking         48 KiB.
  | Spline reduction from  4096 to   118 points by (cutting and)     1 x coarsening gives error:  0.00E+00
  | Maximum value outside interaction range:  6.66E-16
  Calculating the Coulomb matrix in reciprocal space ...
  Atomic logSBT for 2-center cutCoul matrix    :  max(cpu_time)    wall_clock(cpu1)
  | TB initialization                          :        0.046 s           0.046 s
  | TB usage                                   :        0.004 s           0.005 s

  Atomic logSBT for 2-center cutCoul matrix    :  max(cpu_time)    wall_clock(cpu1)
  | TB initialization                          :        0.046 s           0.046 s
  | TB usage                                   :        0.004 s           0.005 s

  Preparing TB like auxiliary 2-center Coulomb matrix
  SBT integration errors (all should be 'small'):
  large logFT aliasing -> increase N/lnrange
  large SBT aliasing -> decrease lnk0 & increase lnk0+lnrange
  large SBT ringing -> decrease lnr0 & increase lnr0+lnrange
  |            El't  L: logFT-al.   small-k   large-k   small-r   large-r
  | Need to store    47 splines of    93 points taking         40 KiB.
  | Spline reduction from  4096 to    93 points by (cutting and)     1 x coarsening gives error:  0.00E+00
  | Gaussian spline reduction from  4096 to    93 points by (cutting and)     1 x coarsening gives error:  0.00E+00
  | Maximum value outside interaction range:  3.23E-10
  Calculating singularity lifting chi
  | Gamma:  1.00E+00; chi:      6.5049166813445627
  | Gamma:  5.00E-01; chi:      7.0047569304733344; extra:      7.5045971796021060
  | Gamma:  2.50E-01; chi:      7.2547569265342808; extra:      7.5047569225952273
  | Gamma:  1.25E-01; chi:      7.3797569265342808; extra:      7.5047569265342808
  | Using chi:      7.5047569265342808; last diff:  3.94E-09
  Calculating the Coulomb matrix in reciprocal space ...
  Atomic logSBT for 2-center Coulomb matrix    :  max(cpu_time)    wall_clock(cpu1)
  | TB initialization                          :        0.043 s           0.043 s
  | TB usage                                   :        0.004 s           0.004 s


  Initialising transformed Gauss-Legendre time and frequency grids
  Number of frequency points for self energy.....: 20
  Number of frequency points....................: 20
 
  HF reference state: single excitation contribution is zero
--------------------------------------------
  Periodic RPA total energy calculation starts ...
 
 -----------------------------------------------------------------------
  Start to calculate the periodic RPA correlation energy  ... 
  The first valence state in the frozen-core algorithm :           1
 using n_freqs_block=          20 , n_blocks=           1
 kq_pair, ik, iq :            1           1
   first lvl_Cc in q (-7.312673813440983E-018,0.000000000000000E+000)
 lvlkqsize:  2.5343999E-02
 lvl_tricoeff_kq_col => lvl_tricoeff_kq_row
  n_pair:            4   lvl_tricoffe dim:          18           4
  loop atom:            1           1           5           1          18
           1           2
  loop atom:            1           1           5           1          18
           1           3
  loop atom:            1           1           5           1          18
           1           4
  loop atom:            1           1           5           1          18
           1           5
     1     1        0.00000000        0.00000000        0.00000000       -0.11041876
       17.24858836        0.00000000       -1.16838683        0.00000000
 
 -----------------------------------------------------------------------------
   RPA correlation energy :          -0.03514738  Ha,        -0.95640897  eV
 
total_energy=      -78.15247210
en_xc=       27.16421081
eex_energy=       27.16421081
rpa_tot_en=      -79.10888107
 --------------------------------------------------------------------
    Exact exchange energy        :           -0.99826640 Ha,         -27.16421081 eV
    DFT/HF total energy          :           -2.87205056 Ha,         -78.15247210 eV
    Exchange-only total energy   :           -2.87205056 Ha,         -78.15247210 eV
    RPA total energy             :           -2.90719794 Ha,         -79.10888107 eV
 
    RPA+SE total energy          :           -2.90719794 Ha,         -79.10888107 eV
    RPA+rSE total energy         :           -2.90719794 Ha,         -79.10888107 eV
 

------------------------------------------------------------------------------
  Final output of selected total energy values:

  The following output summarizes some interesting total energy values
  at the end of a run (AFTER all relaxation, molecular dynamics, etc.).

  | Total energy of the DFT / Hartree-Fock s.c.f. calculation      :            -78.152472101 eV
  | Final zero-broadening corrected energy (caution - metals only) :            -78.152472101 eV
  | For reference only, the value of 1 Hartree used in FHI-aims is :             27.211384500 eV
  | For reference only, the overall average (free atom contribution
  | + realspace contribution) of the electrostatic potential after
  | s.c.f. convergence is                                          :             -0.819095161 eV

  Before relying on these values, please be sure to understand exactly which
  total energy value is referred to by a given number. Different objects may
  all carry the same name 'total energy'. Definitions:

  Total energy of the DFT / Hartree-Fock s.c.f. calculation:
  | Note that this energy does not include ANY quantities calculated after the
  | s.c.f. cycle, in particular not ANY RPA, MP2, etc. many-body perturbation terms.

  Final zero-broadening corrected energy:
  | For metallic systems only, a broadening of the occupation numbers at the Fermi
  | level can be extrapolated back to zero broadening by an electron-gas inspired
  | formula. For all systems that are not real metals, this value can be
  | meaningless and should be avoided.

------------------------------------------------------------------------------
  Methods described in the following list of references were used in this FHI-aims run.
  If you publish the results, please make sure to cite these reference if they apply.
  FHI-aims is an academic code, and for our developers (often, Ph.D. students
  and postdocs), scientific credit in the community is essential.
  Thank you for helping us!

  For any use of FHI-aims, please cite:

    Volker Blum, Ralf Gehrke, Felix Hanke, Paula Havu, Ville Havu,
    Xinguo Ren, Karsten Reuter, and Matthias Scheffler
    'Ab initio molecular simulations with numeric atom-centered orbitals'
    Computer Physics Communications 180, 2175-2196 (2009)
    http://dx.doi.org/10.1016/j.cpc.2009.06.022


  For Hartree-Fock, hybrid functionals, or many-body perturbation theory used in your run, please cite:

    Xinguo Ren, Patrick Rinke, Volker Blum, Juergen Wieferink, Alex Tkatchenko,
    Andrea Sanfilippo, Karsten Reuter, and Matthias Scheffler,
    'Resolution-of-identity approach to Hartree-Fock, hybrid density functionals,
    RPA, MP2, and GW with numeric atom-centered orbital basis functions'
    New Journal of Physics 14, 053020 (2012).
    http://dx.doi.org/10.1088/1367-2630/14/5/053020


  The provided symmetry information was generated with SPGlib:

    Atsushi Togo, Yusuke Seto, Dimitar Pashov
    SPGlib 1.7.3 obtained from http://spglib.sourceforge.net
    Copyright (C) 2008 Atsushi Togo


  The ELSI infrastructure was used in your run to solve the Kohn-Sham electronic structure.
  Please check out http://elsi-interchange.org to learn more.
  If scalability is important for your project, please acknowledge ELSI by citing:

    V. W-z. Yu, F. Corsetti, A. Garcia, W. P. Huhn, M. Jacquelin, W. Jia,
    B. Lange, L. Lin, J. Lu, W. Mi, A. Seifitokaldani, A. Vazquez-Mayagoitia,
    C. Yang, H. Yang, and V. Blum
    'ELSI: A unified software interface for Kohn-Sham electronic structure solvers'
    Computer Physics Communications 222, 267-285 (2018).
    http://dx.doi.org/10.1016/j.cpc.2017.09.007


  For the real-space grid partitioning and parallelization used in this calculation, please cite:

    Ville Havu, Volker Blum, Paula Havu, and Matthias Scheffler,
    'Efficient O(N) integration for all-electron electronic structure calculation'
    'using numerically tabulated basis functions'
    Journal of Computational Physics 228, 8367-8379 (2009).
    http://dx.doi.org/10.1016/j.jcp.2009.08.008


  The high-level electronic structure method used in your calculation
  employed our efficient localized resolution of identity for the Coulomb operator.
  Some calculations, especially large-scale hybrid density functional theory,
  are only possible thanks to this development. For this feature, please cite:

    Arvid Ihrig, Juergen Wieferink, Igor Ying Zhang, Matti Ropo, Xinguo Ren,
    Patrick Rinke, Matthias Scheffler, and Volker Blum,
    'Accurate localized resolution of identity approach for linear-scaling
    hybrid density functionals and for many-body perturbation theory'
    New Journal of Physics 117, 093020 (2015).
    http://dx.doi.org/10.1088/1367-2630/17/9/093020

  Of course, there are many other important community references, e.g., those cited in the
  above references. Our list is limited to references that describe implementations in the
  FHI-aims code. The reason is purely practical (length of this list) - please credit others as well.

------------------------------------------------------------
          Leaving FHI-aims.
          Date     :  20210506, Time     :  102822.344

          Computational steps:
          | Number of self-consistency cycles          :            8
          | Number of SCF (re)initializations          :            1

          Detailed time accounting                     :  max(cpu_time)    wall_clock(cpu1)
          | Total time                                 :       16.028 s          16.086 s
          | Preparation time                           :        0.046 s           0.046 s
          | Boundary condition initalization           :        0.204 s           0.205 s
          | Grid partitioning                          :        0.028 s           0.028 s
          | Preloading free-atom quantities on grid    :        0.001 s           0.002 s
          | Free-atom superposition energy             :        0.028 s           0.028 s
          | Total time for integrations                :        0.789 s           0.790 s
          | Product basis setup: Total time            :        1.345 s           1.348 s
          | Transforming LVL triples to recip. space   :        6.254 s           6.268 s
          | Total time evaluating exchange matrix      :        0.005 s           0.004 s
          | Transforming ovlp_3fn to ovlp_3KS          :        0.000 s           0.000 s
          | Total time for evaluating polarisability   :        0.000 s           0.000 s
          | Total time for RPA corr. energy            :        0.002 s           0.001 s
          | Total time for rSE corr. energy            :        0.000 s           0.000 s
          | Total time for solution of K.-S. equations :        0.004 s           0.004 s
          | Total time for density update              :        0.546 s           0.550 s
          | Total time for mixing                      :        0.011 s           0.012 s
          | Total time for Hartree multipole update    :        0.026 s           0.026 s
          | Total time for Hartree multipole sum       :        5.324 s           5.339 s
          | Total time for total energy evaluation     :        0.001 s           0.000 s

          Partial memory accounting:
          | Residual value for overall tracked memory usage across tasks:     0.000000 MB (should be 0.000000 MB)
          | Peak values for overall tracked memory usage:
          |   Minimum:        0.319 MB (on task 0 after allocating wave)
          |   Maximum:        0.319 MB (on task 0 after allocating wave)
          |   Average:        0.319 MB
          | Largest tracked array allocation:
          |   Minimum:        0.133 MB (all_coords on task 0)
          |   Maximum:        0.133 MB (all_coords on task 0)
          |   Average:        0.133 MB
          Note:  These values currently only include a subset of arrays which are explicitly tracked.
          The "true" memory usage will be greater.

          Have a nice day.
------------------------------------------------------------
